
             +---------------------------------------------------+
             |                                                   |
             |                   WANNIER90                       |
             |                                                   |
             +---------------------------------------------------+
             |                                                   |
             |        Welcome to the Maximally-Localized         |
             |        Generalized Wannier Functions code         |
             |            http://www.wannier.org                 |
             |                                                   |
             |                                                   |
             |  Wannier90 Developer Group:                       |
             |    Giovanni Pizzi    (EPFL)                       |
             |    Valerio Vitale    (Cambridge)                  |
             |    David Vanderbilt  (Rutgers University)         |
             |    Nicola Marzari    (EPFL)                       |
             |    Ivo Souza         (Universidad del Pais Vasco) |
             |    Arash A. Mostofi  (Imperial College London)    |
             |    Jonathan R. Yates (University of Oxford)       |
             |                                                   |
             |  For the full list of Wannier90 3.x authors,      |
             |  please check the code documentation and the      |
             |  README on the GitHub page of the code            |
             |                                                   |
             |                                                   |
             |  Please cite                                      |
             |                                                   |
             |  [ref] "Wannier90 as a community code:            |
             |        new features and applications",            |
             |        G. Pizzi et al., J. Phys. Cond. Matt. 32,  |
             |        165902 (2020).                             |
             |        http://doi.org/10.1088/1361-648X/ab51ff    |
             |                                                   |
             |  in any publications arising from the use of      |
             |  this code. For the method please cite            |
             |                                                   |
             |  [ref] "Maximally Localized Generalised Wannier   |
             |         Functions for Composite Energy Bands"     |
             |         N. Marzari and D. Vanderbilt              |
             |         Phys. Rev. B 56 12847 (1997)              |
             |                                                   |
             |  [ref] "Maximally Localized Wannier Functions     |
             |         for Entangled Energy Bands"               |
             |         I. Souza, N. Marzari and D. Vanderbilt    |
             |         Phys. Rev. B 65 035109 (2001)             |
             |                                                   |
             |                                                   |
             | Copyright (c) 1996-2020                           |
             |        The Wannier90 Developer Group and          |
             |        individual contributors                    |
             |                                                   |
             |      Release: 3.1.0        5th March    2020      |
             |                                                   |
             | This program is free software; you can            |
             | redistribute it and/or modify it under the terms  |
             | of the GNU General Public License as published by |
             | the Free Software Foundation; either version 2 of |
             | the License, or (at your option) any later version|
             |                                                   |
             | This program is distributed in the hope that it   |
             | will be useful, but WITHOUT ANY WARRANTY; without |
             | even the implied warranty of MERCHANTABILITY or   |
             | FITNESS FOR A PARTICULAR PURPOSE. See the GNU     |
             | General Public License for more details.          |
             |                                                   |
             | You should have received a copy of the GNU General|
             | Public License along with this program; if not,   |
             | write to the Free Software Foundation, Inc.,      |
             | 675 Mass Ave, Cambridge, MA 02139, USA.           |
             |                                                   |
             +---------------------------------------------------+
             |    Execution started on 30Oct2020 at 11:17:24     |
             +---------------------------------------------------+
 
 ******************************************************************************
 * -> Using CODATA 2006 constant values                                       *
 *    (http://physics.nist.gov/cuu/Constants/index.html)                      *
 * -> Using Bohr value from CODATA                                            *
 ******************************************************************************
 

 Running in serial (with parallel executable)

                                    ------
                                    SYSTEM
                                    ------

                              Lattice Vectors (Ang)
                    a_1     3.810000   0.000000   0.000000
                    a_2     0.000000   3.810000   0.000000
                    a_3     0.000000   0.000000   3.810000

                   Unit Cell Volume:      55.30634  (Ang^3)

                        Reciprocal-Space Vectors (Ang^-1)
                    b_1     1.649130   0.000000   0.000000
                    b_2     0.000000   1.649130   0.000000
                    b_3     0.000000   0.000000   1.649130
  
 *----------------------------------------------------------------------------*
 |   Site       Fractional Coordinate          Cartesian Coordinate (Ang)     |
 +----------------------------------------------------------------------------+
 | Sr   1   0.00000   0.00000   0.00000   |    0.00000   0.00000   0.00000    |
 | Mn   1   0.50000   0.50000   0.50000   |    1.90500   1.90500   1.90500    |
 | O    1   0.00000   0.50000   0.50000   |    0.00000   1.90500   1.90500    |
 | O    2   0.50000   0.00000   0.50000   |    1.90500   0.00000   1.90500    |
 | O    3   0.50000   0.50000   0.00000   |    1.90500   1.90500   0.00000    |
 *----------------------------------------------------------------------------*
                                -----------
                                PROJECTIONS
                                -----------
  
 +----------------------------------------------------------------------------+
 |     Frac. Coord.   l mr  r        z-axis               x-axis          Z/a |
 +----------------------------------------------------------------------------+
 |  0.50  0.50  0.50  2  1  1  0.000  0.000  1.000  1.000  0.000  0.000   1.0 |
 |  0.50  0.50  0.50  2  2  1  0.000  0.000  1.000  1.000  0.000  0.000   1.0 |
 |  0.50  0.50  0.50  2  3  1  0.000  0.000  1.000  1.000  0.000  0.000   1.0 |
 |  0.50  0.50  0.50  2  4  1  0.000  0.000  1.000  1.000  0.000  0.000   1.0 |
 |  0.50  0.50  0.50  2  5  1  0.000  0.000  1.000  1.000  0.000  0.000   1.0 |
 |  0.00  0.50  0.50  1  1  1  0.000  0.000  1.000  1.000  0.000  0.000   1.0 |
 |  0.00  0.50  0.50  1  2  1  0.000  0.000  1.000  1.000  0.000  0.000   1.0 |
 |  0.00  0.50  0.50  1  3  1  0.000  0.000  1.000  1.000  0.000  0.000   1.0 |
 |  0.50  0.00  0.50  1  1  1  0.000  0.000  1.000  1.000  0.000  0.000   1.0 |
 |  0.50  0.00  0.50  1  2  1  0.000  0.000  1.000  1.000  0.000  0.000   1.0 |
 |  0.50  0.00  0.50  1  3  1  0.000  0.000  1.000  1.000  0.000  0.000   1.0 |
 |  0.50  0.50  0.00  1  1  1  0.000  0.000  1.000  1.000  0.000  0.000   1.0 |
 |  0.50  0.50  0.00  1  2  1  0.000  0.000  1.000  1.000  0.000  0.000   1.0 |
 |  0.50  0.50  0.00  1  3  1  0.000  0.000  1.000  1.000  0.000  0.000   1.0 |
 +----------------------------------------------------------------------------+
  
                                ------------
                                K-POINT GRID
                                ------------
  
             Grid size =  6 x  6 x  6      Total points =  216
  
 *----------------------------------------------------------------------------*
 | k-point      Fractional Coordinate        Cartesian Coordinate (Ang^-1)    |
 +----------------------------------------------------------------------------+
 |     1    0.00000   0.00000   0.00000   |    0.00000   0.00000   0.00000    |
 |     2    0.00000   0.00000   0.16667   |    0.00000   0.00000   0.27486    |
 |     3    0.00000   0.00000   0.33333   |    0.00000   0.00000   0.54971    |
 |     4    0.00000   0.00000   0.50000   |    0.00000   0.00000   0.82457    |
 |     5    0.00000   0.00000   0.66667   |    0.00000   0.00000   1.09942    |
 |     6    0.00000   0.00000   0.83333   |    0.00000   0.00000   1.37428    |
 |     7    0.00000   0.16667   0.00000   |    0.00000   0.27486   0.00000    |
 |     8    0.00000   0.16667   0.16667   |    0.00000   0.27486   0.27486    |
 |     9    0.00000   0.16667   0.33333   |    0.00000   0.27486   0.54971    |
 |    10    0.00000   0.16667   0.50000   |    0.00000   0.27486   0.82457    |
 |    11    0.00000   0.16667   0.66667   |    0.00000   0.27486   1.09942    |
 |    12    0.00000   0.16667   0.83333   |    0.00000   0.27486   1.37428    |
 |    13    0.00000   0.33333   0.00000   |    0.00000   0.54971   0.00000    |
 |    14    0.00000   0.33333   0.16667   |    0.00000   0.54971   0.27486    |
 |    15    0.00000   0.33333   0.33333   |    0.00000   0.54971   0.54971    |
 |    16    0.00000   0.33333   0.50000   |    0.00000   0.54971   0.82457    |
 |    17    0.00000   0.33333   0.66667   |    0.00000   0.54971   1.09942    |
 |    18    0.00000   0.33333   0.83333   |    0.00000   0.54971   1.37428    |
 |    19    0.00000   0.50000   0.00000   |    0.00000   0.82457   0.00000    |
 |    20    0.00000   0.50000   0.16667   |    0.00000   0.82457   0.27486    |
 |    21    0.00000   0.50000   0.33333   |    0.00000   0.82457   0.54971    |
 |    22    0.00000   0.50000   0.50000   |    0.00000   0.82457   0.82457    |
 |    23    0.00000   0.50000   0.66667   |    0.00000   0.82457   1.09942    |
 |    24    0.00000   0.50000   0.83333   |    0.00000   0.82457   1.37428    |
 |    25    0.00000   0.66667   0.00000   |    0.00000   1.09942   0.00000    |
 |    26    0.00000   0.66667   0.16667   |    0.00000   1.09942   0.27486    |
 |    27    0.00000   0.66667   0.33333   |    0.00000   1.09942   0.54971    |
 |    28    0.00000   0.66667   0.50000   |    0.00000   1.09942   0.82457    |
 |    29    0.00000   0.66667   0.66667   |    0.00000   1.09942   1.09942    |
 |    30    0.00000   0.66667   0.83333   |    0.00000   1.09942   1.37428    |
 |    31    0.00000   0.83333   0.00000   |    0.00000   1.37428   0.00000    |
 |    32    0.00000   0.83333   0.16667   |    0.00000   1.37428   0.27486    |
 |    33    0.00000   0.83333   0.33333   |    0.00000   1.37428   0.54971    |
 |    34    0.00000   0.83333   0.50000   |    0.00000   1.37428   0.82457    |
 |    35    0.00000   0.83333   0.66667   |    0.00000   1.37428   1.09942    |
 |    36    0.00000   0.83333   0.83333   |    0.00000   1.37428   1.37428    |
 |    37    0.16667   0.00000   0.00000   |    0.27486   0.00000   0.00000    |
 |    38    0.16667   0.00000   0.16667   |    0.27486   0.00000   0.27486    |
 |    39    0.16667   0.00000   0.33333   |    0.27486   0.00000   0.54971    |
 |    40    0.16667   0.00000   0.50000   |    0.27486   0.00000   0.82457    |
 |    41    0.16667   0.00000   0.66667   |    0.27486   0.00000   1.09942    |
 |    42    0.16667   0.00000   0.83333   |    0.27486   0.00000   1.37428    |
 |    43    0.16667   0.16667   0.00000   |    0.27486   0.27486   0.00000    |
 |    44    0.16667   0.16667   0.16667   |    0.27486   0.27486   0.27486    |
 |    45    0.16667   0.16667   0.33333   |    0.27486   0.27486   0.54971    |
 |    46    0.16667   0.16667   0.50000   |    0.27486   0.27486   0.82457    |
 |    47    0.16667   0.16667   0.66667   |    0.27486   0.27486   1.09942    |
 |    48    0.16667   0.16667   0.83333   |    0.27486   0.27486   1.37428    |
 |    49    0.16667   0.33333   0.00000   |    0.27486   0.54971   0.00000    |
 |    50    0.16667   0.33333   0.16667   |    0.27486   0.54971   0.27486    |
 |    51    0.16667   0.33333   0.33333   |    0.27486   0.54971   0.54971    |
 |    52    0.16667   0.33333   0.50000   |    0.27486   0.54971   0.82457    |
 |    53    0.16667   0.33333   0.66667   |    0.27486   0.54971   1.09942    |
 |    54    0.16667   0.33333   0.83333   |    0.27486   0.54971   1.37428    |
 |    55    0.16667   0.50000   0.00000   |    0.27486   0.82457   0.00000    |
 |    56    0.16667   0.50000   0.16667   |    0.27486   0.82457   0.27486    |
 |    57    0.16667   0.50000   0.33333   |    0.27486   0.82457   0.54971    |
 |    58    0.16667   0.50000   0.50000   |    0.27486   0.82457   0.82457    |
 |    59    0.16667   0.50000   0.66667   |    0.27486   0.82457   1.09942    |
 |    60    0.16667   0.50000   0.83333   |    0.27486   0.82457   1.37428    |
 |    61    0.16667   0.66667   0.00000   |    0.27486   1.09942   0.00000    |
 |    62    0.16667   0.66667   0.16667   |    0.27486   1.09942   0.27486    |
 |    63    0.16667   0.66667   0.33333   |    0.27486   1.09942   0.54971    |
 |    64    0.16667   0.66667   0.50000   |    0.27486   1.09942   0.82457    |
 |    65    0.16667   0.66667   0.66667   |    0.27486   1.09942   1.09942    |
 |    66    0.16667   0.66667   0.83333   |    0.27486   1.09942   1.37428    |
 |    67    0.16667   0.83333   0.00000   |    0.27486   1.37428   0.00000    |
 |    68    0.16667   0.83333   0.16667   |    0.27486   1.37428   0.27486    |
 |    69    0.16667   0.83333   0.33333   |    0.27486   1.37428   0.54971    |
 |    70    0.16667   0.83333   0.50000   |    0.27486   1.37428   0.82457    |
 |    71    0.16667   0.83333   0.66667   |    0.27486   1.37428   1.09942    |
 |    72    0.16667   0.83333   0.83333   |    0.27486   1.37428   1.37428    |
 |    73    0.33333   0.00000   0.00000   |    0.54971   0.00000   0.00000    |
 |    74    0.33333   0.00000   0.16667   |    0.54971   0.00000   0.27486    |
 |    75    0.33333   0.00000   0.33333   |    0.54971   0.00000   0.54971    |
 |    76    0.33333   0.00000   0.50000   |    0.54971   0.00000   0.82457    |
 |    77    0.33333   0.00000   0.66667   |    0.54971   0.00000   1.09942    |
 |    78    0.33333   0.00000   0.83333   |    0.54971   0.00000   1.37428    |
 |    79    0.33333   0.16667   0.00000   |    0.54971   0.27486   0.00000    |
 |    80    0.33333   0.16667   0.16667   |    0.54971   0.27486   0.27486    |
 |    81    0.33333   0.16667   0.33333   |    0.54971   0.27486   0.54971    |
 |    82    0.33333   0.16667   0.50000   |    0.54971   0.27486   0.82457    |
 |    83    0.33333   0.16667   0.66667   |    0.54971   0.27486   1.09942    |
 |    84    0.33333   0.16667   0.83333   |    0.54971   0.27486   1.37428    |
 |    85    0.33333   0.33333   0.00000   |    0.54971   0.54971   0.00000    |
 |    86    0.33333   0.33333   0.16667   |    0.54971   0.54971   0.27486    |
 |    87    0.33333   0.33333   0.33333   |    0.54971   0.54971   0.54971    |
 |    88    0.33333   0.33333   0.50000   |    0.54971   0.54971   0.82457    |
 |    89    0.33333   0.33333   0.66667   |    0.54971   0.54971   1.09942    |
 |    90    0.33333   0.33333   0.83333   |    0.54971   0.54971   1.37428    |
 |    91    0.33333   0.50000   0.00000   |    0.54971   0.82457   0.00000    |
 |    92    0.33333   0.50000   0.16667   |    0.54971   0.82457   0.27486    |
 |    93    0.33333   0.50000   0.33333   |    0.54971   0.82457   0.54971    |
 |    94    0.33333   0.50000   0.50000   |    0.54971   0.82457   0.82457    |
 |    95    0.33333   0.50000   0.66667   |    0.54971   0.82457   1.09942    |
 |    96    0.33333   0.50000   0.83333   |    0.54971   0.82457   1.37428    |
 |    97    0.33333   0.66667   0.00000   |    0.54971   1.09942   0.00000    |
 |    98    0.33333   0.66667   0.16667   |    0.54971   1.09942   0.27486    |
 |    99    0.33333   0.66667   0.33333   |    0.54971   1.09942   0.54971    |
 |   100    0.33333   0.66667   0.50000   |    0.54971   1.09942   0.82457    |
 |   101    0.33333   0.66667   0.66667   |    0.54971   1.09942   1.09942    |
 |   102    0.33333   0.66667   0.83333   |    0.54971   1.09942   1.37428    |
 |   103    0.33333   0.83333   0.00000   |    0.54971   1.37428   0.00000    |
 |   104    0.33333   0.83333   0.16667   |    0.54971   1.37428   0.27486    |
 |   105    0.33333   0.83333   0.33333   |    0.54971   1.37428   0.54971    |
 |   106    0.33333   0.83333   0.50000   |    0.54971   1.37428   0.82457    |
 |   107    0.33333   0.83333   0.66667   |    0.54971   1.37428   1.09942    |
 |   108    0.33333   0.83333   0.83333   |    0.54971   1.37428   1.37428    |
 |   109    0.50000   0.00000   0.00000   |    0.82457   0.00000   0.00000    |
 |   110    0.50000   0.00000   0.16667   |    0.82457   0.00000   0.27486    |
 |   111    0.50000   0.00000   0.33333   |    0.82457   0.00000   0.54971    |
 |   112    0.50000   0.00000   0.50000   |    0.82457   0.00000   0.82457    |
 |   113    0.50000   0.00000   0.66667   |    0.82457   0.00000   1.09942    |
 |   114    0.50000   0.00000   0.83333   |    0.82457   0.00000   1.37428    |
 |   115    0.50000   0.16667   0.00000   |    0.82457   0.27486   0.00000    |
 |   116    0.50000   0.16667   0.16667   |    0.82457   0.27486   0.27486    |
 |   117    0.50000   0.16667   0.33333   |    0.82457   0.27486   0.54971    |
 |   118    0.50000   0.16667   0.50000   |    0.82457   0.27486   0.82457    |
 |   119    0.50000   0.16667   0.66667   |    0.82457   0.27486   1.09942    |
 |   120    0.50000   0.16667   0.83333   |    0.82457   0.27486   1.37428    |
 |   121    0.50000   0.33333   0.00000   |    0.82457   0.54971   0.00000    |
 |   122    0.50000   0.33333   0.16667   |    0.82457   0.54971   0.27486    |
 |   123    0.50000   0.33333   0.33333   |    0.82457   0.54971   0.54971    |
 |   124    0.50000   0.33333   0.50000   |    0.82457   0.54971   0.82457    |
 |   125    0.50000   0.33333   0.66667   |    0.82457   0.54971   1.09942    |
 |   126    0.50000   0.33333   0.83333   |    0.82457   0.54971   1.37428    |
 |   127    0.50000   0.50000   0.00000   |    0.82457   0.82457   0.00000    |
 |   128    0.50000   0.50000   0.16667   |    0.82457   0.82457   0.27486    |
 |   129    0.50000   0.50000   0.33333   |    0.82457   0.82457   0.54971    |
 |   130    0.50000   0.50000   0.50000   |    0.82457   0.82457   0.82457    |
 |   131    0.50000   0.50000   0.66667   |    0.82457   0.82457   1.09942    |
 |   132    0.50000   0.50000   0.83333   |    0.82457   0.82457   1.37428    |
 |   133    0.50000   0.66667   0.00000   |    0.82457   1.09942   0.00000    |
 |   134    0.50000   0.66667   0.16667   |    0.82457   1.09942   0.27486    |
 |   135    0.50000   0.66667   0.33333   |    0.82457   1.09942   0.54971    |
 |   136    0.50000   0.66667   0.50000   |    0.82457   1.09942   0.82457    |
 |   137    0.50000   0.66667   0.66667   |    0.82457   1.09942   1.09942    |
 |   138    0.50000   0.66667   0.83333   |    0.82457   1.09942   1.37428    |
 |   139    0.50000   0.83333   0.00000   |    0.82457   1.37428   0.00000    |
 |   140    0.50000   0.83333   0.16667   |    0.82457   1.37428   0.27486    |
 |   141    0.50000   0.83333   0.33333   |    0.82457   1.37428   0.54971    |
 |   142    0.50000   0.83333   0.50000   |    0.82457   1.37428   0.82457    |
 |   143    0.50000   0.83333   0.66667   |    0.82457   1.37428   1.09942    |
 |   144    0.50000   0.83333   0.83333   |    0.82457   1.37428   1.37428    |
 |   145    0.66667   0.00000   0.00000   |    1.09942   0.00000   0.00000    |
 |   146    0.66667   0.00000   0.16667   |    1.09942   0.00000   0.27486    |
 |   147    0.66667   0.00000   0.33333   |    1.09942   0.00000   0.54971    |
 |   148    0.66667   0.00000   0.50000   |    1.09942   0.00000   0.82457    |
 |   149    0.66667   0.00000   0.66667   |    1.09942   0.00000   1.09942    |
 |   150    0.66667   0.00000   0.83333   |    1.09942   0.00000   1.37428    |
 |   151    0.66667   0.16667   0.00000   |    1.09942   0.27486   0.00000    |
 |   152    0.66667   0.16667   0.16667   |    1.09942   0.27486   0.27486    |
 |   153    0.66667   0.16667   0.33333   |    1.09942   0.27486   0.54971    |
 |   154    0.66667   0.16667   0.50000   |    1.09942   0.27486   0.82457    |
 |   155    0.66667   0.16667   0.66667   |    1.09942   0.27486   1.09942    |
 |   156    0.66667   0.16667   0.83333   |    1.09942   0.27486   1.37428    |
 |   157    0.66667   0.33333   0.00000   |    1.09942   0.54971   0.00000    |
 |   158    0.66667   0.33333   0.16667   |    1.09942   0.54971   0.27486    |
 |   159    0.66667   0.33333   0.33333   |    1.09942   0.54971   0.54971    |
 |   160    0.66667   0.33333   0.50000   |    1.09942   0.54971   0.82457    |
 |   161    0.66667   0.33333   0.66667   |    1.09942   0.54971   1.09942    |
 |   162    0.66667   0.33333   0.83333   |    1.09942   0.54971   1.37428    |
 |   163    0.66667   0.50000   0.00000   |    1.09942   0.82457   0.00000    |
 |   164    0.66667   0.50000   0.16667   |    1.09942   0.82457   0.27486    |
 |   165    0.66667   0.50000   0.33333   |    1.09942   0.82457   0.54971    |
 |   166    0.66667   0.50000   0.50000   |    1.09942   0.82457   0.82457    |
 |   167    0.66667   0.50000   0.66667   |    1.09942   0.82457   1.09942    |
 |   168    0.66667   0.50000   0.83333   |    1.09942   0.82457   1.37428    |
 |   169    0.66667   0.66667   0.00000   |    1.09942   1.09942   0.00000    |
 |   170    0.66667   0.66667   0.16667   |    1.09942   1.09942   0.27486    |
 |   171    0.66667   0.66667   0.33333   |    1.09942   1.09942   0.54971    |
 |   172    0.66667   0.66667   0.50000   |    1.09942   1.09942   0.82457    |
 |   173    0.66667   0.66667   0.66667   |    1.09942   1.09942   1.09942    |
 |   174    0.66667   0.66667   0.83333   |    1.09942   1.09942   1.37428    |
 |   175    0.66667   0.83333   0.00000   |    1.09942   1.37428   0.00000    |
 |   176    0.66667   0.83333   0.16667   |    1.09942   1.37428   0.27486    |
 |   177    0.66667   0.83333   0.33333   |    1.09942   1.37428   0.54971    |
 |   178    0.66667   0.83333   0.50000   |    1.09942   1.37428   0.82457    |
 |   179    0.66667   0.83333   0.66667   |    1.09942   1.37428   1.09942    |
 |   180    0.66667   0.83333   0.83333   |    1.09942   1.37428   1.37428    |
 |   181    0.83333   0.00000   0.00000   |    1.37428   0.00000   0.00000    |
 |   182    0.83333   0.00000   0.16667   |    1.37428   0.00000   0.27486    |
 |   183    0.83333   0.00000   0.33333   |    1.37428   0.00000   0.54971    |
 |   184    0.83333   0.00000   0.50000   |    1.37428   0.00000   0.82457    |
 |   185    0.83333   0.00000   0.66667   |    1.37428   0.00000   1.09942    |
 |   186    0.83333   0.00000   0.83333   |    1.37428   0.00000   1.37428    |
 |   187    0.83333   0.16667   0.00000   |    1.37428   0.27486   0.00000    |
 |   188    0.83333   0.16667   0.16667   |    1.37428   0.27486   0.27486    |
 |   189    0.83333   0.16667   0.33333   |    1.37428   0.27486   0.54971    |
 |   190    0.83333   0.16667   0.50000   |    1.37428   0.27486   0.82457    |
 |   191    0.83333   0.16667   0.66667   |    1.37428   0.27486   1.09942    |
 |   192    0.83333   0.16667   0.83333   |    1.37428   0.27486   1.37428    |
 |   193    0.83333   0.33333   0.00000   |    1.37428   0.54971   0.00000    |
 |   194    0.83333   0.33333   0.16667   |    1.37428   0.54971   0.27486    |
 |   195    0.83333   0.33333   0.33333   |    1.37428   0.54971   0.54971    |
 |   196    0.83333   0.33333   0.50000   |    1.37428   0.54971   0.82457    |
 |   197    0.83333   0.33333   0.66667   |    1.37428   0.54971   1.09942    |
 |   198    0.83333   0.33333   0.83333   |    1.37428   0.54971   1.37428    |
 |   199    0.83333   0.50000   0.00000   |    1.37428   0.82457   0.00000    |
 |   200    0.83333   0.50000   0.16667   |    1.37428   0.82457   0.27486    |
 |   201    0.83333   0.50000   0.33333   |    1.37428   0.82457   0.54971    |
 |   202    0.83333   0.50000   0.50000   |    1.37428   0.82457   0.82457    |
 |   203    0.83333   0.50000   0.66667   |    1.37428   0.82457   1.09942    |
 |   204    0.83333   0.50000   0.83333   |    1.37428   0.82457   1.37428    |
 |   205    0.83333   0.66667   0.00000   |    1.37428   1.09942   0.00000    |
 |   206    0.83333   0.66667   0.16667   |    1.37428   1.09942   0.27486    |
 |   207    0.83333   0.66667   0.33333   |    1.37428   1.09942   0.54971    |
 |   208    0.83333   0.66667   0.50000   |    1.37428   1.09942   0.82457    |
 |   209    0.83333   0.66667   0.66667   |    1.37428   1.09942   1.09942    |
 |   210    0.83333   0.66667   0.83333   |    1.37428   1.09942   1.37428    |
 |   211    0.83333   0.83333   0.00000   |    1.37428   1.37428   0.00000    |
 |   212    0.83333   0.83333   0.16667   |    1.37428   1.37428   0.27486    |
 |   213    0.83333   0.83333   0.33333   |    1.37428   1.37428   0.54971    |
 |   214    0.83333   0.83333   0.50000   |    1.37428   1.37428   0.82457    |
 |   215    0.83333   0.83333   0.66667   |    1.37428   1.37428   1.09942    |
 |   216    0.83333   0.83333   0.83333   |    1.37428   1.37428   1.37428    |
 *----------------------------------------------------------------------------*
  
  
 *---------------------------------- MAIN ------------------------------------*
 |  Number of Wannier Functions               :                14             |
 |  Number of Objective Wannier Functions     :                14             |
 |  Number of input Bloch states              :                18             |
 |  Output verbosity (1=low, 5=high)          :                 2             |
 |  Timing Level (1=low, 5=high)              :                 1             |
 |  Optimisation (0=memory, 3=speed)          :                 3             |
 |  Length Unit                               :               Ang             |
 |  Post-processing setup (write *.nnkp)      :                 F             |
 |  Using Gamma-only branch of algorithms     :                 F             |
 *----------------------------------------------------------------------------*
 *------------------------------- WANNIERISE ---------------------------------*
 |  Total number of iterations                :               400             |
 |  Number of CG steps before reset           :                 5             |
 |  Trial step length for line search         :             2.000             |
 |  Convergence tolerence                     :         0.100E-11             |
 |  Convergence window                        :                 5             |
 |  Iterations between writing output         :                 1             |
 |  Iterations between backing up to disk     :               100             |
 |  Write r^2_nm to file                      :                 F             |
 |  Write xyz WF centres to file              :                 T             |
 |  Write on-site energies <0n|H|0n> to file  :                 F             |
 |  Use guiding centre to control phases      :                 F             |
 |  Use phases for initial projections        :                 F             |
 *----------------------------------------------------------------------------*
 *------------------------------- DISENTANGLE --------------------------------*
 |  Using band disentanglement                :                 T             |
 |  Total number of iterations                :               200             |
 |  Mixing ratio                              :             0.500             |
 |  Convergence tolerence                     :         1.000E-12             |
 |  Convergence window                        :                 9             |
 *----------------------------------------------------------------------------*
 *-------------------------------- PLOTTING ----------------------------------*
 |  Plotting interpolated bandstructure       :                 T             |
 |   Number of K-path sections                :                 4             |
 |   Divisions along first K-path section     :                30             |
 |   Output format                            :           gnuplot             |
 |   Output mode                              :               s-k             |
 *----------------------------------------------------------------------------*
 |   K-space path sections:                                                   |
 |    From: G       0.000  0.000  0.000     To: M       0.500  0.500  0.000   |
 |    From: M       0.500  0.500  0.000     To: X       0.500  0.000  0.000   |
 |    From: X       0.500  0.000  0.000     To: G       0.000  0.000  0.000   |
 |    From: G       0.000  0.000  0.000     To: R       0.500  0.500  0.500   |
 *----------------------------------------------------------------------------*
 |  Plotting Hamiltonian in WF basis          :                 T             |
 *----------------------------------------------------------------------------*
 Time to read parameters        0.033 (sec)

 *---------------------------------- K-MESH ----------------------------------*
 +----------------------------------------------------------------------------+
 |                    Distance to Nearest-Neighbour Shells                    |
 |                    ------------------------------------                    |
 |          Shell             Distance (Ang^-1)          Multiplicity         |
 |          -----             -----------------          ------------         |
 |             1                   0.274855                      6            |
 |             2                   0.388704                     12            |
 |             3                   0.476063                      8            |
 |             4                   0.549710                      6            |
 |             5                   0.614594                     24            |
 |             6                   0.673255                     24            |
 |             7                   0.777407                     12            |
 |             8                   0.824565                     30            |
 |             9                   0.869168                     24            |
 |            10                   0.911591                     24            |
 |            11                   0.952126                      8            |
 |            12                   0.991004                     24            |
 |            13                   1.028413                     48            |
 |            14                   1.099420                      6            |
 |            15                   1.133256                     48            |
 |            16                   1.166111                     36            |
 |            17                   1.198065                     24            |
 |            18                   1.229189                     24            |
 |            19                   1.259544                     48            |
 |            20                   1.289184                     24            |
 |            21                   1.346509                     24            |
 |            22                   1.374275                     30            |
 |            23                   1.401491                     72            |
 |            24                   1.428188                     32            |
 |            25                   1.480139                     72            |
 |            26                   1.505443                     48            |
 |            27                   1.554815                     12            |
 |            28                   1.578922                     48            |
 |            29                   1.602666                     48            |
 |            30                   1.626064                     48            |
 |            31                   1.649130                     30            |
 |            32                   1.671878                     24            |
 |            33                   1.694320                     72            |
 |            34                   1.738336                     24            |
 |            35                   1.759931                     96            |
 |            36                   1.781264                     48            |
 +----------------------------------------------------------------------------+
 | The b-vectors are chosen automatically                                     |
 | Shell:  1 w_b    6.6185480      (Ang^2)                                    |
 | The following shells are used:   1                                         |
 +----------------------------------------------------------------------------+
 |                        Shell   # Nearest-Neighbours                        |
 |                        -----   --------------------                        |
 |                          1               6                                 |
 +----------------------------------------------------------------------------+
 | Completeness relation is fully satisfied [Eq. (B1), PRB 56, 12847 (1997)]  |
 +----------------------------------------------------------------------------+
 |                  b_k Vectors (Ang^-1) and Weights (Ang^2)                  |
 |                  ----------------------------------------                  |
 |            No.         b_k(x)      b_k(y)      b_k(z)        w_b           |
 |            ---        --------------------------------     --------        |
 |             1         0.000000    0.000000    0.274855     6.618548        |
 |             2         0.000000    0.274855    0.000000     6.618548        |
 |             3         0.274855    0.000000    0.000000     6.618548        |
 |             4         0.000000    0.000000   -0.274855     6.618548        |
 |             5         0.000000   -0.274855    0.000000     6.618548        |
 |             6        -0.274855    0.000000    0.000000     6.618548        |
 +----------------------------------------------------------------------------+
 |                           b_k Directions (Ang^-1)                          |
 |                           -----------------------                          |
 |            No.           x           y           z                         |
 |            ---        --------------------------------                     |
 |             1         0.000000    0.000000    0.274855                     |
 |             2         0.000000    0.274855    0.000000                     |
 |             3         0.274855    0.000000    0.000000                     |
 +----------------------------------------------------------------------------+
  
 Time to get kmesh              0.066 (sec)
 *============================================================================*
 |                              MEMORY ESTIMATE                               |
 |         Maximum RAM allocated during each phase of the calculation         |
 *============================================================================*
 |                        Disentanglement           12.75 Mb                  |
 |                            Wannierise:           11.98 Mb                  |
 |                                                                            |
 |   N.B. by setting optimisation=0 memory usage will be reduced to:          |
 |                        Disentanglement           11.04 Mb                  |
 |                            Wannierise:            8.10 Mb                  |
 |   However, this will result in more i/o and slow down the calculation      |
 |                          plot_wannier:           11.98 Mb                  |
 *----------------------------------------------------------------------------*
  
 Starting a new Wannier90 calculation ...


 Reading overlaps from SrMnO3_up.mmn    :  Created on 30Oct2020 at 11: 9: 2

 Reading projections from SrMnO3_up.amn :  Created on 30Oct2020 at 11: 8:55

 Time to read overlaps          0.466 (sec)

 *------------------------------- DISENTANGLE --------------------------------*
 +----------------------------------------------------------------------------+
 |                              Energy  Windows                               |
 |                              ---------------                               |
 |                   Outer:    2.30000  to   17.70000  (eV)                   |
 |                   No frozen states were specified                          |
 +----------------------------------------------------------------------------+
 |                        K-points with Frozen States                         |
 |                        ---------------------------                         |
 +----------------------------------------------------------------------------+
   Number of target bands to extract:   14
 +----------------------------------------------------------------------------+
 |                                  Windows                                   |
 |                                  -------                                   |
 |               K-point      Ndimwin     Ndimfroz    Nfirstwin               |
 |               ----------------------------------------------               |
 |                   1           14            0           5                  |
 |                   2           14            0           5                  |
 |                   3           14            0           5                  |
 |                   4           14            0           5                  |
 |                   5           14            0           5                  |
 |                   6           14            0           5                  |
 |                   7           14            0           5                  |
 |                   8           14            0           5                  |
 |                   9           14            0           5                  |
 |                  10           14            0           5                  |
 |                  11           14            0           5                  |
 |                  12           14            0           5                  |
 |                  13           14            0           5                  |
 |                  14           14            0           5                  |
 |                  15           14            0           5                  |
 |                  16           14            0           5                  |
 |                  17           14            0           5                  |
 |                  18           14            0           5                  |
 |                  19           14            0           5                  |
 |                  20           14            0           5                  |
 |                  21           14            0           5                  |
 |                  22           14            0           5                  |
 |                  23           14            0           5                  |
 |                  24           14            0           5                  |
 |                  25           14            0           5                  |
 |                  26           14            0           5                  |
 |                  27           14            0           5                  |
 |                  28           14            0           5                  |
 |                  29           14            0           5                  |
 |                  30           14            0           5                  |
 |                  31           14            0           5                  |
 |                  32           14            0           5                  |
 |                  33           14            0           5                  |
 |                  34           14            0           5                  |
 |                  35           14            0           5                  |
 |                  36           14            0           5                  |
 |                  37           14            0           5                  |
 |                  38           14            0           5                  |
 |                  39           14            0           5                  |
 |                  40           14            0           5                  |
 |                  41           14            0           5                  |
 |                  42           14            0           5                  |
 |                  43           14            0           5                  |
 |                  44           14            0           5                  |
 |                  45           14            0           5                  |
 |                  46           14            0           5                  |
 |                  47           14            0           5                  |
 |                  48           14            0           5                  |
 |                  49           14            0           5                  |
 |                  50           14            0           5                  |
 |                  51           14            0           5                  |
 |                  52           14            0           5                  |
 |                  53           14            0           5                  |
 |                  54           14            0           5                  |
 |                  55           14            0           5                  |
 |                  56           14            0           5                  |
 |                  57           14            0           5                  |
 |                  58           14            0           5                  |
 |                  59           14            0           5                  |
 |                  60           14            0           5                  |
 |                  61           14            0           5                  |
 |                  62           14            0           5                  |
 |                  63           14            0           5                  |
 |                  64           14            0           5                  |
 |                  65           14            0           5                  |
 |                  66           14            0           5                  |
 |                  67           14            0           5                  |
 |                  68           14            0           5                  |
 |                  69           14            0           5                  |
 |                  70           14            0           5                  |
 |                  71           14            0           5                  |
 |                  72           14            0           5                  |
 |                  73           14            0           5                  |
 |                  74           14            0           5                  |
 |                  75           14            0           5                  |
 |                  76           14            0           5                  |
 |                  77           14            0           5                  |
 |                  78           14            0           5                  |
 |                  79           14            0           5                  |
 |                  80           14            0           5                  |
 |                  81           14            0           5                  |
 |                  82           14            0           5                  |
 |                  83           14            0           5                  |
 |                  84           14            0           5                  |
 |                  85           14            0           5                  |
 |                  86           14            0           5                  |
 |                  87           14            0           5                  |
 |                  88           14            0           5                  |
 |                  89           14            0           5                  |
 |                  90           14            0           5                  |
 |                  91           14            0           5                  |
 |                  92           14            0           5                  |
 |                  93           14            0           5                  |
 |                  94           14            0           5                  |
 |                  95           14            0           5                  |
 |                  96           14            0           5                  |
 |                  97           14            0           5                  |
 |                  98           14            0           5                  |
 |                  99           14            0           5                  |
 |                 100           14            0           5                  |
 |                 101           14            0           5                  |
 |                 102           14            0           5                  |
 |                 103           14            0           5                  |
 |                 104           14            0           5                  |
 |                 105           14            0           5                  |
 |                 106           14            0           5                  |
 |                 107           14            0           5                  |
 |                 108           14            0           5                  |
 |                 109           14            0           5                  |
 |                 110           14            0           5                  |
 |                 111           14            0           5                  |
 |                 112           14            0           5                  |
 |                 113           14            0           5                  |
 |                 114           14            0           5                  |
 |                 115           14            0           5                  |
 |                 116           14            0           5                  |
 |                 117           14            0           5                  |
 |                 118           14            0           5                  |
 |                 119           14            0           5                  |
 |                 120           14            0           5                  |
 |                 121           14            0           5                  |
 |                 122           14            0           5                  |
 |                 123           14            0           5                  |
 |                 124           14            0           5                  |
 |                 125           14            0           5                  |
 |                 126           14            0           5                  |
 |                 127           14            0           5                  |
 |                 128           14            0           5                  |
 |                 129           14            0           5                  |
 |                 130           14            0           5                  |
 |                 131           14            0           5                  |
 |                 132           14            0           5                  |
 |                 133           14            0           5                  |
 |                 134           14            0           5                  |
 |                 135           14            0           5                  |
 |                 136           14            0           5                  |
 |                 137           14            0           5                  |
 |                 138           14            0           5                  |
 |                 139           14            0           5                  |
 |                 140           14            0           5                  |
 |                 141           14            0           5                  |
 |                 142           14            0           5                  |
 |                 143           14            0           5                  |
 |                 144           14            0           5                  |
 |                 145           14            0           5                  |
 |                 146           14            0           5                  |
 |                 147           14            0           5                  |
 |                 148           14            0           5                  |
 |                 149           14            0           5                  |
 |                 150           14            0           5                  |
 |                 151           14            0           5                  |
 |                 152           14            0           5                  |
 |                 153           14            0           5                  |
 |                 154           14            0           5                  |
 |                 155           14            0           5                  |
 |                 156           14            0           5                  |
 |                 157           14            0           5                  |
 |                 158           14            0           5                  |
 |                 159           14            0           5                  |
 |                 160           14            0           5                  |
 |                 161           14            0           5                  |
 |                 162           14            0           5                  |
 |                 163           14            0           5                  |
 |                 164           14            0           5                  |
 |                 165           14            0           5                  |
 |                 166           14            0           5                  |
 |                 167           14            0           5                  |
 |                 168           14            0           5                  |
 |                 169           14            0           5                  |
 |                 170           14            0           5                  |
 |                 171           14            0           5                  |
 |                 172           14            0           5                  |
 |                 173           14            0           5                  |
 |                 174           14            0           5                  |
 |                 175           14            0           5                  |
 |                 176           14            0           5                  |
 |                 177           14            0           5                  |
 |                 178           14            0           5                  |
 |                 179           14            0           5                  |
 |                 180           14            0           5                  |
 |                 181           14            0           5                  |
 |                 182           14            0           5                  |
 |                 183           14            0           5                  |
 |                 184           14            0           5                  |
 |                 185           14            0           5                  |
 |                 186           14            0           5                  |
 |                 187           14            0           5                  |
 |                 188           14            0           5                  |
 |                 189           14            0           5                  |
 |                 190           14            0           5                  |
 |                 191           14            0           5                  |
 |                 192           14            0           5                  |
 |                 193           14            0           5                  |
 |                 194           14            0           5                  |
 |                 195           14            0           5                  |
 |                 196           14            0           5                  |
 |                 197           14            0           5                  |
 |                 198           14            0           5                  |
 |                 199           14            0           5                  |
 |                 200           14            0           5                  |
 |                 201           14            0           5                  |
 |                 202           14            0           5                  |
 |                 203           14            0           5                  |
 |                 204           14            0           5                  |
 |                 205           14            0           5                  |
 |                 206           14            0           5                  |
 |                 207           14            0           5                  |
 |                 208           14            0           5                  |
 |                 209           14            0           5                  |
 |                 210           14            0           5                  |
 |                 211           14            0           5                  |
 |                 212           14            0           5                  |
 |                 213           14            0           5                  |
 |                 214           14            0           5                  |
 |                 215           14            0           5                  |
 |                 216           14            0           5                  |
 +----------------------------------------------------------------------------+

                   Unitarised projection of Wannier functions                  
                   ------------------------------------------                  
   A_mn = <psi_m|g_n> --> S = A.A^+ --> U = S^-1/2.A
   In dis_project... done
   No inner window (linner = F)

                   Extraction of optimally-connected subspace                  
                   ------------------------------------------                  
 +---------------------------------------------------------------------+<-- DIS
 |  Iter     Omega_I(i-1)      Omega_I(i)      Delta (frac.)    Time   |<-- DIS
 +---------------------------------------------------------------------+<-- DIS
       1      10.49993688      10.49993688      -1.721E-14      0.00    <-- DIS
       2      10.49993688      10.49993688      -1.876E-14      0.02    <-- DIS
       3      10.49993688      10.49993688      -1.754E-14      0.03    <-- DIS
       4      10.49993688      10.49993688      -1.743E-14      0.05    <-- DIS
       5      10.49993688      10.49993688      -1.843E-14      0.07    <-- DIS
       6      10.49993688      10.49993688      -2.043E-14      0.09    <-- DIS
       7      10.49993688      10.49993688      -1.543E-14      0.10    <-- DIS
       8      10.49993688      10.49993688      -1.488E-14      0.12    <-- DIS
       9      10.49993688      10.49993688      -1.943E-14      0.14    <-- DIS

             <<<      Delta < 1.000E-12  over  9 iterations     >>>
             <<< Disentanglement convergence criteria satisfied >>>

        Final Omega_I    10.49993688 (Ang^2)

 +----------------------------------------------------------------------------+

 Time to disentangle bands      0.218 (sec)

 Writing checkpoint file SrMnO3_up.chk... done


 *------------------------------- WANNIERISE ---------------------------------*
 +--------------------------------------------------------------------+<-- CONV
 | Iter  Delta Spread     RMS Gradient      Spread (Ang^2)      Time  |<-- CONV
 +--------------------------------------------------------------------+<-- CONV

 ------------------------------------------------------------------------------
 Initial State
  WF centre and spread    1  (  1.905000,  1.905000,  1.905000 )     0.49242363
  WF centre and spread    2  (  1.905000,  1.905000,  1.905000 )     0.49028142
  WF centre and spread    3  (  1.905000,  1.905000,  1.905000 )     0.49028142
  WF centre and spread    4  (  1.905000,  1.905000,  1.905000 )     0.49241909
  WF centre and spread    5  (  1.905000,  1.905000,  1.905000 )     0.49028143
  WF centre and spread    6  ( -0.000000,  1.905000,  1.905000 )     0.98811013
  WF centre and spread    7  (  0.000000,  1.905000,  1.905000 )     0.78537364
  WF centre and spread    8  ( -0.000000,  1.905000,  1.905000 )     0.98811103
  WF centre and spread    9  (  1.905000, -0.000000,  1.905000 )     0.98811013
  WF centre and spread   10  (  1.905000,  0.000000,  1.905000 )     0.98811103
  WF centre and spread   11  (  1.905000, -0.000000,  1.905000 )     0.78537364
  WF centre and spread   12  (  1.905000,  1.905000, -0.000000 )     0.78543809
  WF centre and spread   13  (  1.905000,  1.905000, -0.000000 )     0.98811015
  WF centre and spread   14  (  1.905000,  1.905000, -0.000000 )     0.98811015
  Sum of centres and spreads ( 20.955000, 20.955000, 20.955000 )    10.74053496

      0     0.107E+02     0.0000000000       10.7405349592       0.19  <-- CONV
        O_D=      0.0000000 O_OD=      0.2405981 O_TOT=     10.7405350 <-- SPRD
 ------------------------------------------------------------------------------
 Cycle:      1
  WF centre and spread    1  (  1.905000,  1.905000,  1.905000 )     0.49049016
  WF centre and spread    2  (  1.905000,  1.905000,  1.905000 )     0.48900274
  WF centre and spread    3  (  1.905000,  1.905000,  1.905000 )     0.48900274
  WF centre and spread    4  (  1.905000,  1.905000,  1.905000 )     0.49049084
  WF centre and spread    5  (  1.905000,  1.905000,  1.905000 )     0.48900273
  WF centre and spread    6  ( -0.000000,  1.905000,  1.905000 )     0.98749811
  WF centre and spread    7  (  0.000000,  1.905000,  1.905000 )     0.78215825
  WF centre and spread    8  ( -0.000000,  1.905000,  1.905000 )     0.98749799
  WF centre and spread    9  (  1.905000, -0.000000,  1.905000 )     0.98749811
  WF centre and spread   10  (  1.905000,  0.000000,  1.905000 )     0.98749799
  WF centre and spread   11  (  1.905000, -0.000000,  1.905000 )     0.78215825
  WF centre and spread   12  (  1.905000,  1.905000, -0.000000 )     0.78222550
  WF centre and spread   13  (  1.905000,  1.905000, -0.000000 )     0.98749749
  WF centre and spread   14  (  1.905000,  1.905000, -0.000000 )     0.98749749
  Sum of centres and spreads ( 20.955000, 20.955000, 20.955000 )    10.71951837

      1    -0.210E-01     0.0933233204       10.7195183698       0.23  <-- CONV
        O_D=      0.0000000 O_OD=      0.2195815 O_TOT=     10.7195184 <-- SPRD
 Delta: O_D=  0.3123078E-14 O_OD= -0.2101659E-01 O_TOT= -0.2101659E-01 <-- DLTA
 ------------------------------------------------------------------------------
 Cycle:      2
  WF centre and spread    1  (  1.905000,  1.905000,  1.905000 )     0.48935596
  WF centre and spread    2  (  1.905000,  1.905000,  1.905000 )     0.48736860
  WF centre and spread    3  (  1.905000,  1.905000,  1.905000 )     0.48736860
  WF centre and spread    4  (  1.905000,  1.905000,  1.905000 )     0.48936420
  WF centre and spread    5  (  1.905000,  1.905000,  1.905000 )     0.48736868
  WF centre and spread    6  ( -0.000000,  1.905000,  1.905000 )     0.98669844
  WF centre and spread    7  (  0.000000,  1.905000,  1.905000 )     0.77770628
  WF centre and spread    8  ( -0.000000,  1.905000,  1.905000 )     0.98669782
  WF centre and spread    9  (  1.905000, -0.000000,  1.905000 )     0.98669844
  WF centre and spread   10  (  1.905000,  0.000000,  1.905000 )     0.98669783
  WF centre and spread   11  (  1.905000, -0.000000,  1.905000 )     0.77770628
  WF centre and spread   12  (  1.905000,  1.905000, -0.000000 )     0.77783639
  WF centre and spread   13  (  1.905000,  1.905000,  0.000000 )     0.98669738
  WF centre and spread   14  (  1.905000,  1.905000, -0.000000 )     0.98669738
  Sum of centres and spreads ( 20.955000, 20.955000, 20.955000 )    10.69426229

      2    -0.253E-01     0.1420855374       10.6942622893       0.27  <-- CONV
        O_D=      0.0000000 O_OD=      0.1943254 O_TOT=     10.6942623 <-- SPRD
 Delta: O_D= -0.1578486E-14 O_OD= -0.2525608E-01 O_TOT= -0.2525608E-01 <-- DLTA
 ------------------------------------------------------------------------------
 Cycle:      3
  WF centre and spread    1  (  1.905000,  1.905000,  1.905000 )     0.48939144
  WF centre and spread    2  (  1.905000,  1.905000,  1.905000 )     0.48682111
  WF centre and spread    3  (  1.905000,  1.905000,  1.905000 )     0.48682111
  WF centre and spread    4  (  1.905000,  1.905000,  1.905000 )     0.48940243
  WF centre and spread    5  (  1.905000,  1.905000,  1.905000 )     0.48682115
  WF centre and spread    6  ( -0.000000,  1.905000,  1.905000 )     0.98601584
  WF centre and spread    7  (  0.000000,  1.905000,  1.905000 )     0.77419652
  WF centre and spread    8  ( -0.000000,  1.905000,  1.905000 )     0.98601585
  WF centre and spread    9  (  1.905000, -0.000000,  1.905000 )     0.98601584
  WF centre and spread   10  (  1.905000,  0.000000,  1.905000 )     0.98601585
  WF centre and spread   11  (  1.905000, -0.000000,  1.905000 )     0.77419652
  WF centre and spread   12  (  1.905000,  1.905000, -0.000000 )     0.77433065
  WF centre and spread   13  (  1.905000,  1.905000,  0.000000 )     0.98601492
  WF centre and spread   14  (  1.905000,  1.905000, -0.000000 )     0.98601492
  Sum of centres and spreads ( 20.955000, 20.955000, 20.955000 )    10.67807413

      3    -0.162E-01     0.1143541574       10.6780741257       0.31  <-- CONV
        O_D=      0.0000000 O_OD=      0.1781372 O_TOT=     10.6780741 <-- SPRD
 Delta: O_D=  0.3406352E-15 O_OD= -0.1618816E-01 O_TOT= -0.1618816E-01 <-- DLTA
 ------------------------------------------------------------------------------
 Cycle:      4
  WF centre and spread    1  (  1.905000,  1.905000,  1.905000 )     0.49029152
  WF centre and spread    2  (  1.905000,  1.905000,  1.905000 )     0.48651930
  WF centre and spread    3  (  1.905000,  1.905000,  1.905000 )     0.48651930
  WF centre and spread    4  (  1.905000,  1.905000,  1.905000 )     0.49030088
  WF centre and spread    5  (  1.905000,  1.905000,  1.905000 )     0.48651932
  WF centre and spread    6  ( -0.000000,  1.905000,  1.905000 )     0.98513202
  WF centre and spread    7  (  0.000000,  1.905000,  1.905000 )     0.77092197
  WF centre and spread    8  ( -0.000000,  1.905000,  1.905000 )     0.98513168
  WF centre and spread    9  (  1.905000, -0.000000,  1.905000 )     0.98513202
  WF centre and spread   10  (  1.905000,  0.000000,  1.905000 )     0.98513168
  WF centre and spread   11  (  1.905000, -0.000000,  1.905000 )     0.77092197
  WF centre and spread   12  (  1.905000,  1.905000, -0.000000 )     0.77100526
  WF centre and spread   13  (  1.905000,  1.905000,  0.000000 )     0.98513028
  WF centre and spread   14  (  1.905000,  1.905000, -0.000000 )     0.98513028
  Sum of centres and spreads ( 20.955000, 20.955000, 20.955000 )    10.66378749

      4    -0.143E-01     0.1070113979       10.6637874918       0.34  <-- CONV
        O_D=      0.0000000 O_OD=      0.1638506 O_TOT=     10.6637875 <-- SPRD
 Delta: O_D= -0.2504798E-15 O_OD= -0.1428663E-01 O_TOT= -0.1428663E-01 <-- DLTA
 ------------------------------------------------------------------------------
 Cycle:      5
  WF centre and spread    1  (  1.905000,  1.905000,  1.905000 )     0.49090056
  WF centre and spread    2  (  1.905000,  1.905000,  1.905000 )     0.48640877
  WF centre and spread    3  (  1.905000,  1.905000,  1.905000 )     0.48640877
  WF centre and spread    4  (  1.905000,  1.905000,  1.905000 )     0.49090701
  WF centre and spread    5  (  1.905000,  1.905000,  1.905000 )     0.48640878
  WF centre and spread    6  ( -0.000000,  1.905000,  1.905000 )     0.98466043
  WF centre and spread    7  (  0.000000,  1.905000,  1.905000 )     0.76962501
  WF centre and spread    8  ( -0.000000,  1.905000,  1.905000 )     0.98466014
  WF centre and spread    9  (  1.905000, -0.000000,  1.905000 )     0.98466043
  WF centre and spread   10  (  1.905000,  0.000000,  1.905000 )     0.98466014
  WF centre and spread   11  (  1.905000, -0.000000,  1.905000 )     0.76962501
  WF centre and spread   12  (  1.905000,  1.905000, -0.000000 )     0.76968000
  WF centre and spread   13  (  1.905000,  1.905000,  0.000000 )     0.98465928
  WF centre and spread   14  (  1.905000,  1.905000, -0.000000 )     0.98465928
  Sum of centres and spreads ( 20.955000, 20.955000, 20.955000 )    10.65792361

      5    -0.586E-02     0.0858112422       10.6579236110       0.38  <-- CONV
        O_D=      0.0000000 O_OD=      0.1579867 O_TOT=     10.6579236 <-- SPRD
 Delta: O_D= -0.1377947E-14 O_OD= -0.5863881E-02 O_TOT= -0.5863881E-02 <-- DLTA
 ------------------------------------------------------------------------------
 Cycle:      6
  WF centre and spread    1  (  1.905000,  1.905000,  1.905000 )     0.49110265
  WF centre and spread    2  (  1.905000,  1.905000,  1.905000 )     0.48642995
  WF centre and spread    3  (  1.905000,  1.905000,  1.905000 )     0.48642995
  WF centre and spread    4  (  1.905000,  1.905000,  1.905000 )     0.49110685
  WF centre and spread    5  (  1.905000,  1.905000,  1.905000 )     0.48642995
  WF centre and spread    6  ( -0.000000,  1.905000,  1.905000 )     0.98446689
  WF centre and spread    7  (  0.000000,  1.905000,  1.905000 )     0.76927077
  WF centre and spread    8  ( -0.000000,  1.905000,  1.905000 )     0.98446666
  WF centre and spread    9  (  1.905000, -0.000000,  1.905000 )     0.98446689
  WF centre and spread   10  (  1.905000,  0.000000,  1.905000 )     0.98446666
  WF centre and spread   11  (  1.905000, -0.000000,  1.905000 )     0.76927077
  WF centre and spread   12  (  1.905000,  1.905000, -0.000000 )     0.76930964
  WF centre and spread   13  (  1.905000,  1.905000,  0.000000 )     0.98446621
  WF centre and spread   14  (  1.905000,  1.905000, -0.000000 )     0.98446621
  Sum of centres and spreads ( 20.955000, 20.955000, 20.955000 )    10.65615005

      6    -0.177E-02     0.0441073867       10.6561500512       0.42  <-- CONV
        O_D=      0.0000000 O_OD=      0.1562132 O_TOT=     10.6561501 <-- SPRD
 Delta: O_D= -0.2130288E-15 O_OD= -0.1773560E-02 O_TOT= -0.1773560E-02 <-- DLTA
 ------------------------------------------------------------------------------
 Cycle:      7
  WF centre and spread    1  (  1.905000,  1.905000,  1.905000 )     0.49105373
  WF centre and spread    2  (  1.905000,  1.905000,  1.905000 )     0.48639221
  WF centre and spread    3  (  1.905000,  1.905000,  1.905000 )     0.48639221
  WF centre and spread    4  (  1.905000,  1.905000,  1.905000 )     0.49105750
  WF centre and spread    5  (  1.905000,  1.905000,  1.905000 )     0.48639221
  WF centre and spread    6  ( -0.000000,  1.905000,  1.905000 )     0.98442270
  WF centre and spread    7  (  0.000000,  1.905000,  1.905000 )     0.76924077
  WF centre and spread    8  ( -0.000000,  1.905000,  1.905000 )     0.98442244
  WF centre and spread    9  (  1.905000, -0.000000,  1.905000 )     0.98442270
  WF centre and spread   10  (  1.905000,  0.000000,  1.905000 )     0.98442244
  WF centre and spread   11  (  1.905000, -0.000000,  1.905000 )     0.76924077
  WF centre and spread   12  (  1.905000,  1.905000, -0.000000 )     0.76927490
  WF centre and spread   13  (  1.905000,  1.905000,  0.000000 )     0.98442210
  WF centre and spread   14  (  1.905000,  1.905000, -0.000000 )     0.98442210
  Sum of centres and spreads ( 20.955000, 20.955000, 20.955000 )    10.65557879

      7    -0.571E-03     0.0291634946       10.6555787925       0.46  <-- CONV
        O_D=      0.0000000 O_OD=      0.1556419 O_TOT=     10.6555788 <-- SPRD
 Delta: O_D= -0.8226188E-16 O_OD= -0.5712588E-03 O_TOT= -0.5712588E-03 <-- DLTA
 ------------------------------------------------------------------------------
 Cycle:      8
  WF centre and spread    1  (  1.905000,  1.905000,  1.905000 )     0.49101581
  WF centre and spread    2  (  1.905000,  1.905000,  1.905000 )     0.48640189
  WF centre and spread    3  (  1.905000,  1.905000,  1.905000 )     0.48640190
  WF centre and spread    4  (  1.905000,  1.905000,  1.905000 )     0.49101876
  WF centre and spread    5  (  1.905000,  1.905000,  1.905000 )     0.48640189
  WF centre and spread    6  ( -0.000000,  1.905000,  1.905000 )     0.98437652
  WF centre and spread    7  (  0.000000,  1.905000,  1.905000 )     0.76921814
  WF centre and spread    8  ( -0.000000,  1.905000,  1.905000 )     0.98437620
  WF centre and spread    9  (  1.905000, -0.000000,  1.905000 )     0.98437652
  WF centre and spread   10  (  1.905000,  0.000000,  1.905000 )     0.98437620
  WF centre and spread   11  (  1.905000, -0.000000,  1.905000 )     0.76921814
  WF centre and spread   12  (  1.905000,  1.905000, -0.000000 )     0.76924285
  WF centre and spread   13  (  1.905000,  1.905000,  0.000000 )     0.98437608
  WF centre and spread   14  (  1.905000,  1.905000, -0.000000 )     0.98437608
  Sum of centres and spreads ( 20.955000, 20.955000, 20.955000 )    10.65517696

      8    -0.402E-03     0.0187813038       10.6551769590       0.50  <-- CONV
        O_D=      0.0000000 O_OD=      0.1552401 O_TOT=     10.6551770 <-- SPRD
 Delta: O_D= -0.2860174E-16 O_OD= -0.4018334E-03 O_TOT= -0.4018334E-03 <-- DLTA
 ------------------------------------------------------------------------------
 Cycle:      9
  WF centre and spread    1  (  1.905000,  1.905000,  1.905000 )     0.49101407
  WF centre and spread    2  (  1.905000,  1.905000,  1.905000 )     0.48642336
  WF centre and spread    3  (  1.905000,  1.905000,  1.905000 )     0.48642336
  WF centre and spread    4  (  1.905000,  1.905000,  1.905000 )     0.49101652
  WF centre and spread    5  (  1.905000,  1.905000,  1.905000 )     0.48642335
  WF centre and spread    6  ( -0.000000,  1.905000,  1.905000 )     0.98435379
  WF centre and spread    7  (  0.000000,  1.905000,  1.905000 )     0.76919833
  WF centre and spread    8  ( -0.000000,  1.905000,  1.905000 )     0.98435343
  WF centre and spread    9  (  1.905000, -0.000000,  1.905000 )     0.98435379
  WF centre and spread   10  (  1.905000,  0.000000,  1.905000 )     0.98435343
  WF centre and spread   11  (  1.905000, -0.000000,  1.905000 )     0.76919833
  WF centre and spread   12  (  1.905000,  1.905000, -0.000000 )     0.76921759
  WF centre and spread   13  (  1.905000,  1.905000,  0.000000 )     0.98435340
  WF centre and spread   14  (  1.905000,  1.905000, -0.000000 )     0.98435340
  Sum of centres and spreads ( 20.955000, 20.955000, 20.955000 )    10.65503615

      9    -0.141E-03     0.0131587006       10.6550361464       0.54  <-- CONV
        O_D=      0.0000000 O_OD=      0.1550993 O_TOT=     10.6550361 <-- SPRD
 Delta: O_D= -0.1282544E-15 O_OD= -0.1408127E-03 O_TOT= -0.1408127E-03 <-- DLTA
 ------------------------------------------------------------------------------
 Cycle:     10
  WF centre and spread    1  (  1.905000,  1.905000,  1.905000 )     0.49103373
  WF centre and spread    2  (  1.905000,  1.905000,  1.905000 )     0.48644064
  WF centre and spread    3  (  1.905000,  1.905000,  1.905000 )     0.48644064
  WF centre and spread    4  (  1.905000,  1.905000,  1.905000 )     0.49103588
  WF centre and spread    5  (  1.905000,  1.905000,  1.905000 )     0.48644064
  WF centre and spread    6  ( -0.000000,  1.905000,  1.905000 )     0.98434065
  WF centre and spread    7  (  0.000000,  1.905000,  1.905000 )     0.76918278
  WF centre and spread    8  ( -0.000000,  1.905000,  1.905000 )     0.98434026
  WF centre and spread    9  (  1.905000, -0.000000,  1.905000 )     0.98434065
  WF centre and spread   10  (  1.905000,  0.000000,  1.905000 )     0.98434026
  WF centre and spread   11  (  1.905000, -0.000000,  1.905000 )     0.76918278
  WF centre and spread   12  (  1.905000,  1.905000, -0.000000 )     0.76919959
  WF centre and spread   13  (  1.905000,  1.905000,  0.000000 )     0.98434027
  WF centre and spread   14  (  1.905000,  1.905000, -0.000000 )     0.98434027
  Sum of centres and spreads ( 20.955000, 20.955000, 20.955000 )    10.65499904

     10    -0.371E-04     0.0066665969       10.6549990371       0.57  <-- CONV
        O_D=      0.0000000 O_OD=      0.1550622 O_TOT=     10.6549990 <-- SPRD
 Delta: O_D= -0.3583368E-16 O_OD= -0.3710921E-04 O_TOT= -0.3710921E-04 <-- DLTA
 ------------------------------------------------------------------------------
 Cycle:     11
  WF centre and spread    1  (  1.905000,  1.905000,  1.905000 )     0.49106803
  WF centre and spread    2  (  1.905000,  1.905000,  1.905000 )     0.48645859
  WF centre and spread    3  (  1.905000,  1.905000,  1.905000 )     0.48645859
  WF centre and spread    4  (  1.905000,  1.905000,  1.905000 )     0.49106987
  WF centre and spread    5  (  1.905000,  1.905000,  1.905000 )     0.48645859
  WF centre and spread    6  ( -0.000000,  1.905000,  1.905000 )     0.98432696
  WF centre and spread    7  (  0.000000,  1.905000,  1.905000 )     0.76916382
  WF centre and spread    8  ( -0.000000,  1.905000,  1.905000 )     0.98432654
  WF centre and spread    9  (  1.905000, -0.000000,  1.905000 )     0.98432696
  WF centre and spread   10  (  1.905000,  0.000000,  1.905000 )     0.98432654
  WF centre and spread   11  (  1.905000, -0.000000,  1.905000 )     0.76916382
  WF centre and spread   12  (  1.905000,  1.905000, -0.000000 )     0.76917867
  WF centre and spread   13  (  1.905000,  1.905000,  0.000000 )     0.98432656
  WF centre and spread   14  (  1.905000,  1.905000, -0.000000 )     0.98432656
  Sum of centres and spreads ( 20.955000, 20.955000, 20.955000 )    10.65498013

     11    -0.189E-04     0.0041452019       10.6549801280       0.61  <-- CONV
        O_D=      0.0000000 O_OD=      0.1550432 O_TOT=     10.6549801 <-- SPRD
 Delta: O_D=  0.1024663E-16 O_OD= -0.1890912E-04 O_TOT= -0.1890912E-04 <-- DLTA
 ------------------------------------------------------------------------------
 Cycle:     12
  WF centre and spread    1  (  1.905000,  1.905000,  1.905000 )     0.49110103
  WF centre and spread    2  (  1.905000,  1.905000,  1.905000 )     0.48646974
  WF centre and spread    3  (  1.905000,  1.905000,  1.905000 )     0.48646974
  WF centre and spread    4  (  1.905000,  1.905000,  1.905000 )     0.49110265
  WF centre and spread    5  (  1.905000,  1.905000,  1.905000 )     0.48646974
  WF centre and spread    6  ( -0.000000,  1.905000,  1.905000 )     0.98431712
  WF centre and spread    7  (  0.000000,  1.905000,  1.905000 )     0.76914763
  WF centre and spread    8  ( -0.000000,  1.905000,  1.905000 )     0.98431668
  WF centre and spread    9  (  1.905000, -0.000000,  1.905000 )     0.98431712
  WF centre and spread   10  (  1.905000,  0.000000,  1.905000 )     0.98431668
  WF centre and spread   11  (  1.905000, -0.000000,  1.905000 )     0.76914763
  WF centre and spread   12  (  1.905000,  1.905000, -0.000000 )     0.76916127
  WF centre and spread   13  (  1.905000,  1.905000,  0.000000 )     0.98431671
  WF centre and spread   14  (  1.905000,  1.905000, -0.000000 )     0.98431671
  Sum of centres and spreads ( 20.955000, 20.955000, 20.955000 )    10.65497045

     12    -0.967E-05     0.0032467811       10.6549704547       0.65  <-- CONV
        O_D=      0.0000000 O_OD=      0.1550336 O_TOT=     10.6549705 <-- SPRD
 Delta: O_D= -0.3274384E-16 O_OD= -0.9673340E-05 O_TOT= -0.9673340E-05 <-- DLTA
 ------------------------------------------------------------------------------
 Cycle:     13
  WF centre and spread    1  (  1.905000,  1.905000,  1.905000 )     0.49111513
  WF centre and spread    2  (  1.905000,  1.905000,  1.905000 )     0.48646781
  WF centre and spread    3  (  1.905000,  1.905000,  1.905000 )     0.48646781
  WF centre and spread    4  (  1.905000,  1.905000,  1.905000 )     0.49111676
  WF centre and spread    5  (  1.905000,  1.905000,  1.905000 )     0.48646781
  WF centre and spread    6  ( -0.000000,  1.905000,  1.905000 )     0.98431585
  WF centre and spread    7  (  0.000000,  1.905000,  1.905000 )     0.76914120
  WF centre and spread    8  ( -0.000000,  1.905000,  1.905000 )     0.98431541
  WF centre and spread    9  (  1.905000, -0.000000,  1.905000 )     0.98431585
  WF centre and spread   10  (  1.905000,  0.000000,  1.905000 )     0.98431541
  WF centre and spread   11  (  1.905000, -0.000000,  1.905000 )     0.76914120
  WF centre and spread   12  (  1.905000,  1.905000, -0.000000 )     0.76915481
  WF centre and spread   13  (  1.905000,  1.905000,  0.000000 )     0.98431543
  WF centre and spread   14  (  1.905000,  1.905000, -0.000000 )     0.98431543
  Sum of centres and spreads ( 20.955000, 20.955000, 20.955000 )    10.65496590

     13    -0.455E-05     0.0020390646       10.6549659042       0.69  <-- CONV
        O_D=      0.0000000 O_OD=      0.1550290 O_TOT=     10.6549659 <-- SPRD
 Delta: O_D=  0.1316559E-15 O_OD= -0.4550451E-05 O_TOT= -0.4550451E-05 <-- DLTA
 ------------------------------------------------------------------------------
 Cycle:     14
  WF centre and spread    1  (  1.905000,  1.905000,  1.905000 )     0.49115449
  WF centre and spread    2  (  1.905000,  1.905000,  1.905000 )     0.48646481
  WF centre and spread    3  (  1.905000,  1.905000,  1.905000 )     0.48646481
  WF centre and spread    4  (  1.905000,  1.905000,  1.905000 )     0.49115612
  WF centre and spread    5  (  1.905000,  1.905000,  1.905000 )     0.48646481
  WF centre and spread    6  ( -0.000000,  1.905000,  1.905000 )     0.98431223
  WF centre and spread    7  (  0.000000,  1.905000,  1.905000 )     0.76912330
  WF centre and spread    8  ( -0.000000,  1.905000,  1.905000 )     0.98431178
  WF centre and spread    9  (  1.905000, -0.000000,  1.905000 )     0.98431223
[...]
  WF centre and spread    3  (  1.905000,  1.905000,  1.905000 )     0.48648529
  WF centre and spread    4  (  1.905000,  1.905000,  1.905000 )     0.49132473
  WF centre and spread    5  (  1.905000,  1.905000,  1.905000 )     0.48648529
  WF centre and spread    6  ( -0.000000,  1.905000,  1.905000 )     0.98429609
  WF centre and spread    7  (  0.000000,  1.905000,  1.905000 )     0.76901990
  WF centre and spread    8  ( -0.000000,  1.905000,  1.905000 )     0.98429562
  WF centre and spread    9  (  1.905000, -0.000000,  1.905000 )     0.98429609
  WF centre and spread   10  (  1.905000,  0.000000,  1.905000 )     0.98429562
  WF centre and spread   11  (  1.905000, -0.000000,  1.905000 )     0.76901990
  WF centre and spread   12  (  1.905000,  1.905000, -0.000000 )     0.76902940
  WF centre and spread   13  (  1.905000,  1.905000, -0.000000 )     0.98429559
  WF centre and spread   14  (  1.905000,  1.905000, -0.000000 )     0.98429559
  Sum of centres and spreads ( 20.955000, 20.955000, 20.955000 )    10.65494752

     52    -0.306E-12     0.0000025385       10.6549475203       2.06  <-- CONV
        O_D=      0.0000000 O_OD=      0.1550106 O_TOT=     10.6549475 <-- SPRD
 Delta: O_D= -0.2856807E-16 O_OD= -0.3043954E-12 O_TOT= -0.3055334E-12 <-- DLTA
 ------------------------------------------------------------------------------
 Cycle:     53
  WF centre and spread    1  (  1.905000,  1.905000,  1.905000 )     0.49132313
  WF centre and spread    2  (  1.905000,  1.905000,  1.905000 )     0.48648529
  WF centre and spread    3  (  1.905000,  1.905000,  1.905000 )     0.48648529
  WF centre and spread    4  (  1.905000,  1.905000,  1.905000 )     0.49132475
  WF centre and spread    5  (  1.905000,  1.905000,  1.905000 )     0.48648529
  WF centre and spread    6  ( -0.000000,  1.905000,  1.905000 )     0.98429608
  WF centre and spread    7  (  0.000000,  1.905000,  1.905000 )     0.76901989
  WF centre and spread    8  ( -0.000000,  1.905000,  1.905000 )     0.98429562
  WF centre and spread    9  (  1.905000, -0.000000,  1.905000 )     0.98429608
  WF centre and spread   10  (  1.905000,  0.000000,  1.905000 )     0.98429562
  WF centre and spread   11  (  1.905000, -0.000000,  1.905000 )     0.76901989
  WF centre and spread   12  (  1.905000,  1.905000, -0.000000 )     0.76902939
  WF centre and spread   13  (  1.905000,  1.905000, -0.000000 )     0.98429559
  WF centre and spread   14  (  1.905000,  1.905000, -0.000000 )     0.98429559
  Sum of centres and spreads ( 20.955000, 20.955000, 20.955000 )    10.65494752

     53    -0.507E-11     0.0000024895       10.6549475203       2.10  <-- CONV
        O_D=      0.0000000 O_OD=      0.1550106 O_TOT=     10.6549475 <-- SPRD
 Delta: O_D= -0.4373795E-16 O_OD= -0.5070111E-11 O_TOT= -0.5069722E-11 <-- DLTA
 ------------------------------------------------------------------------------
 Cycle:     54
  WF centre and spread    1  (  1.905000,  1.905000,  1.905000 )     0.49132316
  WF centre and spread    2  (  1.905000,  1.905000,  1.905000 )     0.48648530
  WF centre and spread    3  (  1.905000,  1.905000,  1.905000 )     0.48648530
  WF centre and spread    4  (  1.905000,  1.905000,  1.905000 )     0.49132477
  WF centre and spread    5  (  1.905000,  1.905000,  1.905000 )     0.48648530
  WF centre and spread    6  ( -0.000000,  1.905000,  1.905000 )     0.98429608
  WF centre and spread    7  (  0.000000,  1.905000,  1.905000 )     0.76901987
  WF centre and spread    8  ( -0.000000,  1.905000,  1.905000 )     0.98429562
  WF centre and spread    9  (  1.905000, -0.000000,  1.905000 )     0.98429608
  WF centre and spread   10  (  1.905000,  0.000000,  1.905000 )     0.98429562
  WF centre and spread   11  (  1.905000, -0.000000,  1.905000 )     0.76901987
  WF centre and spread   12  (  1.905000,  1.905000, -0.000000 )     0.76902937
  WF centre and spread   13  (  1.905000,  1.905000, -0.000000 )     0.98429559
  WF centre and spread   14  (  1.905000,  1.905000, -0.000000 )     0.98429559
  Sum of centres and spreads ( 20.955000, 20.955000, 20.955000 )    10.65494752

     54    -0.437E-11     0.0000020327       10.6549475203       2.14  <-- CONV
        O_D=      0.0000000 O_OD=      0.1550106 O_TOT=     10.6549475 <-- SPRD
 Delta: O_D=  0.1157750E-14 O_OD= -0.4376055E-11 O_TOT= -0.4373391E-11 <-- DLTA
 ------------------------------------------------------------------------------
 Cycle:     55
  WF centre and spread    1  (  1.905000,  1.905000,  1.905000 )     0.49132316
  WF centre and spread    2  (  1.905000,  1.905000,  1.905000 )     0.48648530
  WF centre and spread    3  (  1.905000,  1.905000,  1.905000 )     0.48648530
  WF centre and spread    4  (  1.905000,  1.905000,  1.905000 )     0.49132477
  WF centre and spread    5  (  1.905000,  1.905000,  1.905000 )     0.48648530
  WF centre and spread    6  ( -0.000000,  1.905000,  1.905000 )     0.98429608
  WF centre and spread    7  (  0.000000,  1.905000,  1.905000 )     0.76901987
  WF centre and spread    8  ( -0.000000,  1.905000,  1.905000 )     0.98429562
  WF centre and spread    9  (  1.905000, -0.000000,  1.905000 )     0.98429608
  WF centre and spread   10  (  1.905000,  0.000000,  1.905000 )     0.98429562
  WF centre and spread   11  (  1.905000, -0.000000,  1.905000 )     0.76901987
  WF centre and spread   12  (  1.905000,  1.905000, -0.000000 )     0.76902937
  WF centre and spread   13  (  1.905000,  1.905000, -0.000000 )     0.98429559
  WF centre and spread   14  (  1.905000,  1.905000, -0.000000 )     0.98429559
  Sum of centres and spreads ( 20.955000, 20.955000, 20.955000 )    10.65494752

     55    -0.130E-12     0.0000032122       10.6549475203       2.16  <-- CONV
        O_D=      0.0000000 O_OD=      0.1550106 O_TOT=     10.6549475 <-- SPRD
 Delta: O_D= -0.4659186E-16 O_OD= -0.1293687E-12 O_TOT= -0.1296740E-12 <-- DLTA
 ------------------------------------------------------------------------------
 Cycle:     56
  WF centre and spread    1  (  1.905000,  1.905000,  1.905000 )     0.49132316
  WF centre and spread    2  (  1.905000,  1.905000,  1.905000 )     0.48648530
  WF centre and spread    3  (  1.905000,  1.905000,  1.905000 )     0.48648530
  WF centre and spread    4  (  1.905000,  1.905000,  1.905000 )     0.49132477
  WF centre and spread    5  (  1.905000,  1.905000,  1.905000 )     0.48648530
  WF centre and spread    6  ( -0.000000,  1.905000,  1.905000 )     0.98429608
  WF centre and spread    7  (  0.000000,  1.905000,  1.905000 )     0.76901987
  WF centre and spread    8  ( -0.000000,  1.905000,  1.905000 )     0.98429562
  WF centre and spread    9  (  1.905000, -0.000000,  1.905000 )     0.98429608
  WF centre and spread   10  (  1.905000,  0.000000,  1.905000 )     0.98429562
  WF centre and spread   11  (  1.905000, -0.000000,  1.905000 )     0.76901987
  WF centre and spread   12  (  1.905000,  1.905000, -0.000000 )     0.76902937
  WF centre and spread   13  (  1.905000,  1.905000, -0.000000 )     0.98429559
  WF centre and spread   14  (  1.905000,  1.905000, -0.000000 )     0.98429559
  Sum of centres and spreads ( 20.955000, 20.955000, 20.955000 )    10.65494752

     56    -0.254E-12     0.0000031815       10.6549475203       2.18  <-- CONV
        O_D=      0.0000000 O_OD=      0.1550106 O_TOT=     10.6549475 <-- SPRD
 Delta: O_D= -0.8890436E-16 O_OD= -0.2532974E-12 O_TOT= -0.2540190E-12 <-- DLTA
 ------------------------------------------------------------------------------
 Cycle:     57
  WF centre and spread    1  (  1.905000,  1.905000,  1.905000 )     0.49132317
  WF centre and spread    2  (  1.905000,  1.905000,  1.905000 )     0.48648530
  WF centre and spread    3  (  1.905000,  1.905000,  1.905000 )     0.48648530
  WF centre and spread    4  (  1.905000,  1.905000,  1.905000 )     0.49132478
  WF centre and spread    5  (  1.905000,  1.905000,  1.905000 )     0.48648530
  WF centre and spread    6  ( -0.000000,  1.905000,  1.905000 )     0.98429608
  WF centre and spread    7  (  0.000000,  1.905000,  1.905000 )     0.76901986
  WF centre and spread    8  ( -0.000000,  1.905000,  1.905000 )     0.98429562
  WF centre and spread    9  (  1.905000, -0.000000,  1.905000 )     0.98429608
  WF centre and spread   10  (  1.905000,  0.000000,  1.905000 )     0.98429562
  WF centre and spread   11  (  1.905000, -0.000000,  1.905000 )     0.76901986
  WF centre and spread   12  (  1.905000,  1.905000, -0.000000 )     0.76902936
  WF centre and spread   13  (  1.905000,  1.905000, -0.000000 )     0.98429558
  WF centre and spread   14  (  1.905000,  1.905000, -0.000000 )     0.98429559
  Sum of centres and spreads ( 20.955000, 20.955000, 20.955000 )    10.65494752

     57    -0.599E-11     0.0000031217       10.6549475203       2.22  <-- CONV
        O_D=      0.0000000 O_OD=      0.1550106 O_TOT=     10.6549475 <-- SPRD
 Delta: O_D= -0.9198711E-15 O_OD= -0.5987461E-11 O_TOT= -0.5988099E-11 <-- DLTA
 ------------------------------------------------------------------------------
 Cycle:     58
  WF centre and spread    1  (  1.905000,  1.905000,  1.905000 )     0.49132317
  WF centre and spread    2  (  1.905000,  1.905000,  1.905000 )     0.48648530
  WF centre and spread    3  (  1.905000,  1.905000,  1.905000 )     0.48648530
  WF centre and spread    4  (  1.905000,  1.905000,  1.905000 )     0.49132479
  WF centre and spread    5  (  1.905000,  1.905000,  1.905000 )     0.48648530
  WF centre and spread    6  ( -0.000000,  1.905000,  1.905000 )     0.98429608
  WF centre and spread    7  (  0.000000,  1.905000,  1.905000 )     0.76901986
  WF centre and spread    8  ( -0.000000,  1.905000,  1.905000 )     0.98429562
  WF centre and spread    9  (  1.905000, -0.000000,  1.905000 )     0.98429608
  WF centre and spread   10  (  1.905000,  0.000000,  1.905000 )     0.98429562
  WF centre and spread   11  (  1.905000, -0.000000,  1.905000 )     0.76901986
  WF centre and spread   12  (  1.905000,  1.905000, -0.000000 )     0.76902936
  WF centre and spread   13  (  1.905000,  1.905000, -0.000000 )     0.98429558
  WF centre and spread   14  (  1.905000,  1.905000, -0.000000 )     0.98429559
  Sum of centres and spreads ( 20.955000, 20.955000, 20.955000 )    10.65494752

     58    -0.746E-13     0.0000018216       10.6549475203       2.24  <-- CONV
        O_D=      0.0000000 O_OD=      0.1550106 O_TOT=     10.6549475 <-- SPRD
 Delta: O_D=  0.1084377E-16 O_OD= -0.7449596E-13 O_TOT= -0.7460699E-13 <-- DLTA
 ------------------------------------------------------------------------------
 Cycle:     59
  WF centre and spread    1  (  1.905000,  1.905000,  1.905000 )     0.49132317
  WF centre and spread    2  (  1.905000,  1.905000,  1.905000 )     0.48648530
  WF centre and spread    3  (  1.905000,  1.905000,  1.905000 )     0.48648530
  WF centre and spread    4  (  1.905000,  1.905000,  1.905000 )     0.49132479
  WF centre and spread    5  (  1.905000,  1.905000,  1.905000 )     0.48648530
  WF centre and spread    6  ( -0.000000,  1.905000,  1.905000 )     0.98429608
  WF centre and spread    7  (  0.000000,  1.905000,  1.905000 )     0.76901986
  WF centre and spread    8  ( -0.000000,  1.905000,  1.905000 )     0.98429562
  WF centre and spread    9  (  1.905000, -0.000000,  1.905000 )     0.98429608
  WF centre and spread   10  (  1.905000,  0.000000,  1.905000 )     0.98429562
  WF centre and spread   11  (  1.905000, -0.000000,  1.905000 )     0.76901986
  WF centre and spread   12  (  1.905000,  1.905000, -0.000000 )     0.76902936
  WF centre and spread   13  (  1.905000,  1.905000, -0.000000 )     0.98429558
  WF centre and spread   14  (  1.905000,  1.905000, -0.000000 )     0.98429559
  Sum of centres and spreads ( 20.955000, 20.955000, 20.955000 )    10.65494752

     59    -0.117E-12     0.0000018239       10.6549475203       2.26  <-- CONV
        O_D=      0.0000000 O_OD=      0.1550106 O_TOT=     10.6549475 <-- SPRD
 Delta: O_D=  0.2672847E-17 O_OD= -0.1167122E-12 O_TOT= -0.1172396E-12 <-- DLTA
 ------------------------------------------------------------------------------
 Cycle:     60
  WF centre and spread    1  (  1.905000,  1.905000,  1.905000 )     0.49132318
  WF centre and spread    2  (  1.905000,  1.905000,  1.905000 )     0.48648530
  WF centre and spread    3  (  1.905000,  1.905000,  1.905000 )     0.48648530
  WF centre and spread    4  (  1.905000,  1.905000,  1.905000 )     0.49132479
  WF centre and spread    5  (  1.905000,  1.905000,  1.905000 )     0.48648530
  WF centre and spread    6  ( -0.000000,  1.905000,  1.905000 )     0.98429608
  WF centre and spread    7  (  0.000000,  1.905000,  1.905000 )     0.76901986
  WF centre and spread    8  ( -0.000000,  1.905000,  1.905000 )     0.98429562
  WF centre and spread    9  (  1.905000, -0.000000,  1.905000 )     0.98429608
  WF centre and spread   10  (  1.905000,  0.000000,  1.905000 )     0.98429562
  WF centre and spread   11  (  1.905000, -0.000000,  1.905000 )     0.76901986
  WF centre and spread   12  (  1.905000,  1.905000, -0.000000 )     0.76902936
  WF centre and spread   13  (  1.905000,  1.905000, -0.000000 )     0.98429558
  WF centre and spread   14  (  1.905000,  1.905000, -0.000000 )     0.98429559
  Sum of centres and spreads ( 20.955000, 20.955000, 20.955000 )    10.65494752

     60    -0.156E-12     0.0000018247       10.6549475203       2.28  <-- CONV
        O_D=      0.0000000 O_OD=      0.1550106 O_TOT=     10.6549475 <-- SPRD
 Delta: O_D= -0.5719796E-17 O_OD= -0.1565692E-12 O_TOT= -0.1563194E-12 <-- DLTA
 ------------------------------------------------------------------------------
 Cycle:     61
  WF centre and spread    1  (  1.905000,  1.905000,  1.905000 )     0.49132318
  WF centre and spread    2  (  1.905000,  1.905000,  1.905000 )     0.48648530
  WF centre and spread    3  (  1.905000,  1.905000,  1.905000 )     0.48648530
  WF centre and spread    4  (  1.905000,  1.905000,  1.905000 )     0.49132479
  WF centre and spread    5  (  1.905000,  1.905000,  1.905000 )     0.48648530
  WF centre and spread    6  ( -0.000000,  1.905000,  1.905000 )     0.98429608
  WF centre and spread    7  (  0.000000,  1.905000,  1.905000 )     0.76901986
  WF centre and spread    8  ( -0.000000,  1.905000,  1.905000 )     0.98429562
  WF centre and spread    9  (  1.905000, -0.000000,  1.905000 )     0.98429608
  WF centre and spread   10  (  1.905000,  0.000000,  1.905000 )     0.98429562
  WF centre and spread   11  (  1.905000, -0.000000,  1.905000 )     0.76901986
  WF centre and spread   12  (  1.905000,  1.905000, -0.000000 )     0.76902936
  WF centre and spread   13  (  1.905000,  1.905000, -0.000000 )     0.98429558
  WF centre and spread   14  (  1.905000,  1.905000, -0.000000 )     0.98429559
  Sum of centres and spreads ( 20.955000, 20.955000, 20.955000 )    10.65494752

     61    -0.409E-13     0.0000018238       10.6549475203       2.30  <-- CONV
        O_D=      0.0000000 O_OD=      0.1550106 O_TOT=     10.6549475 <-- SPRD
 Delta: O_D= -0.8151161E-17 O_OD= -0.4060641E-13 O_TOT= -0.4085621E-13 <-- DLTA
 ------------------------------------------------------------------------------
 Cycle:     62
  WF centre and spread    1  (  1.905000,  1.905000,  1.905000 )     0.49132318
  WF centre and spread    2  (  1.905000,  1.905000,  1.905000 )     0.48648530
  WF centre and spread    3  (  1.905000,  1.905000,  1.905000 )     0.48648530
  WF centre and spread    4  (  1.905000,  1.905000,  1.905000 )     0.49132479
  WF centre and spread    5  (  1.905000,  1.905000,  1.905000 )     0.48648530
  WF centre and spread    6  ( -0.000000,  1.905000,  1.905000 )     0.98429608
  WF centre and spread    7  (  0.000000,  1.905000,  1.905000 )     0.76901986
  WF centre and spread    8  ( -0.000000,  1.905000,  1.905000 )     0.98429562
  WF centre and spread    9  (  1.905000, -0.000000,  1.905000 )     0.98429608
  WF centre and spread   10  (  1.905000,  0.000000,  1.905000 )     0.98429562
  WF centre and spread   11  (  1.905000, -0.000000,  1.905000 )     0.76901986
  WF centre and spread   12  (  1.905000,  1.905000, -0.000000 )     0.76902936
  WF centre and spread   13  (  1.905000,  1.905000, -0.000000 )     0.98429558
  WF centre and spread   14  (  1.905000,  1.905000, -0.000000 )     0.98429559
  Sum of centres and spreads ( 20.955000, 20.955000, 20.955000 )    10.65494752

     62    -0.853E-13     0.0000018216       10.6549475203       2.32  <-- CONV
        O_D=      0.0000000 O_OD=      0.1550106 O_TOT=     10.6549475 <-- SPRD
 Delta: O_D= -0.1568273E-16 O_OD= -0.8495982E-13 O_TOT= -0.8526513E-13 <-- DLTA
 ------------------------------------------------------------------------------

             <<<     Delta < 1.000E-12  over  5 iterations     >>>
             <<< Wannierisation convergence criteria satisfied >>>

 Final State
  WF centre and spread    1  (  1.905000,  1.905000,  1.905000 )     0.49132318
  WF centre and spread    2  (  1.905000,  1.905000,  1.905000 )     0.48648530
  WF centre and spread    3  (  1.905000,  1.905000,  1.905000 )     0.48648530
  WF centre and spread    4  (  1.905000,  1.905000,  1.905000 )     0.49132479
  WF centre and spread    5  (  1.905000,  1.905000,  1.905000 )     0.48648530
  WF centre and spread    6  ( -0.000000,  1.905000,  1.905000 )     0.98429608
  WF centre and spread    7  (  0.000000,  1.905000,  1.905000 )     0.76901986
  WF centre and spread    8  ( -0.000000,  1.905000,  1.905000 )     0.98429562
  WF centre and spread    9  (  1.905000, -0.000000,  1.905000 )     0.98429608
  WF centre and spread   10  (  1.905000,  0.000000,  1.905000 )     0.98429562
  WF centre and spread   11  (  1.905000, -0.000000,  1.905000 )     0.76901986
  WF centre and spread   12  (  1.905000,  1.905000, -0.000000 )     0.76902936
  WF centre and spread   13  (  1.905000,  1.905000, -0.000000 )     0.98429558
  WF centre and spread   14  (  1.905000,  1.905000, -0.000000 )     0.98429559
  Sum of centres and spreads ( 20.955000, 20.955000, 20.955000 )    10.65494752

         Spreads (Ang^2)       Omega I      =    10.499936884
        ================       Omega D      =     0.000000000
                               Omega OD     =     0.155010636
    Final Spread (Ang^2)       Omega Total  =    10.654947520
 ------------------------------------------------------------------------------

 Wannier centres written to file SrMnO3_up_centres.xyz
 Time for wannierise            2.145 (sec)

 Writing checkpoint file SrMnO3_up.chk... done

 *---------------------------------------------------------------------------*
 |                               PLOTTING                                    |
 *---------------------------------------------------------------------------*


 Calculating interpolated band-structure

 Time to calculate interpolated band structure       0.568 (sec)

 Time for plotting              0.766 (sec)
 Total Execution Time           3.701 (sec)

 *===========================================================================*
 |                             TIMING INFORMATION                            |
 *===========================================================================*
 |    Tag                                                Ncalls      Time (s)|
 |---------------------------------------------------------------------------|
 |kmesh: get                                        :         1         0.066|
 |overlap: allocate                                 :         1         0.000|
 |overlap: read                                     :         1         0.466|
 |dis: main                                         :         1         0.218|
 |wann: main                                        :         1         2.145|
 |plot: main                                        :         1         0.766|
 *---------------------------------------------------------------------------*

 All done: wannier90 exiting
