 written on 30Oct2020 at 11:17:35 
          14
         343
    8    4    4    4    4    4    8    4    2    2    2    2    2    4    4
    2    2    2    2    2    4    4    2    2    2    2    2    4    4    2
    2    2    2    2    4    4    2    2    2    2    2    4    8    4    4
    4    4    4    8    4    2    2    2    2    2    4    2    1    1    1
    1    1    2    2    1    1    1    1    1    2    2    1    1    1    1
    1    2    2    1    1    1    1    1    2    2    1    1    1    1    1
    2    4    2    2    2    2    2    4    4    2    2    2    2    2    4
    2    1    1    1    1    1    2    2    1    1    1    1    1    2    2
    1    1    1    1    1    2    2    1    1    1    1    1    2    2    1
    1    1    1    1    2    4    2    2    2    2    2    4    4    2    2
    2    2    2    4    2    1    1    1    1    1    2    2    1    1    1
    1    1    2    2    1    1    1    1    1    2    2    1    1    1    1
    1    2    2    1    1    1    1    1    2    4    2    2    2    2    2
    4    4    2    2    2    2    2    4    2    1    1    1    1    1    2
    2    1    1    1    1    1    2    2    1    1    1    1    1    2    2
    1    1    1    1    1    2    2    1    1    1    1    1    2    4    2
    2    2    2    2    4    4    2    2    2    2    2    4    2    1    1
    1    1    1    2    2    1    1    1    1    1    2    2    1    1    1
    1    1    2    2    1    1    1    1    1    2    2    1    1    1    1
    1    2    4    2    2    2    2    2    4    8    4    4    4    4    4
    8    4    2    2    2    2    2    4    4    2    2    2    2    2    4
    4    2    2    2    2    2    4    4    2    2    2    2    2    4    4
    2    2    2    2    2    4    8    4    4    4    4    4    8
   -3   -3   -3    1    1   -0.000005    0.000000
   -3   -3   -3    2    1    0.000000   -0.000000
   -3   -3   -3    3    1   -0.000000   -0.000000
   -3   -3   -3    4    1    0.000000   -0.000000
   -3   -3   -3    5    1    0.000000    0.000000
   -3   -3   -3    6    1   -0.000000    0.000000
   -3   -3   -3    7    1   -0.000010   -0.000000
   -3   -3   -3    8    1    0.000000    0.000000
   -3   -3   -3    9    1   -0.000000   -0.000000
   -3   -3   -3   10    1   -0.000000    0.000000
   -3   -3   -3   11    1   -0.000010   -0.000000
   -3   -3   -3   12    1    0.000021    0.000000
   -3   -3   -3   13    1   -0.000000    0.000000
   -3   -3   -3   14    1    0.000000    0.000000
   -3   -3   -3    1    2    0.000000    0.000000
   -3   -3   -3    2    2    0.000048    0.000000
   -3   -3   -3    3    2    0.000000   -0.000000
   -3   -3   -3    4    2   -0.000000   -0.000000
   -3   -3   -3    5    2   -0.000000    0.000000
   -3   -3   -3    6    2   -0.000009   -0.000000
   -3   -3   -3    7    2    0.000000   -0.000000
   -3   -3   -3    8    2    0.000000   -0.000000
   -3   -3   -3    9    2   -0.000000   -0.000000
   -3   -3   -3   10    2    0.000000   -0.000000
   -3   -3   -3   11    2    0.000000    0.000000
   -3   -3   -3   12    2   -0.000000   -0.000000
   -3   -3   -3   13    2   -0.000009   -0.000000
   -3   -3   -3   14    2   -0.000000   -0.000000
   -3   -3   -3    1    3   -0.000000    0.000000
   -3   -3   -3    2    3    0.000000    0.000000
   -3   -3   -3    3    3    0.000048    0.000000
   -3   -3   -3    4    3    0.000000    0.000000
   -3   -3   -3    5    3    0.000000    0.000000
   -3   -3   -3    6    3    0.000000   -0.000000
   -3   -3   -3    7    3   -0.000000    0.000000
   -3   -3   -3    8    3    0.000000   -0.000000
   -3   -3   -3    9    3   -0.000009    0.000000
   -3   -3   -3   10    3    0.000000   -0.000000
   -3   -3   -3   11    3    0.000000   -0.000000
   -3   -3   -3   12    3   -0.000000   -0.000000
   -3   -3   -3   13    3    0.000000   -0.000000
   -3   -3   -3   14    3   -0.000009    0.000000
   -3   -3   -3    1    4    0.000000    0.000000
   -3   -3   -3    2    4   -0.000000    0.000000
   -3   -3   -3    3    4    0.000000   -0.000000
   -3   -3   -3    4    4   -0.000005    0.000000
   -3   -3   -3    5    4   -0.000000    0.000000
   -3   -3   -3    6    4    0.000000    0.000000
   -3   -3   -3    7    4    0.000018   -0.000000
   -3   -3   -3    8    4   -0.000000   -0.000000
   -3   -3   -3    9    4   -0.000000   -0.000000
   -3   -3   -3   10    4   -0.000000   -0.000000
   -3   -3   -3   11    4   -0.000018    0.000000
   -3   -3   -3   12    4   -0.000000    0.000000
   -3   -3   -3   13    4   -0.000000    0.000000
   -3   -3   -3   14    4   -0.000000   -0.000000
   -3   -3   -3    1    5    0.000000   -0.000000
   -3   -3   -3    2    5   -0.000000   -0.000000
   -3   -3   -3    3    5    0.000000   -0.000000
   -3   -3   -3    4    5   -0.000000   -0.000000
   -3   -3   -3    5    5    0.000048    0.000000
   -3   -3   -3    6    5    0.000000   -0.000000
   -3   -3   -3    7    5   -0.000000    0.000000
   -3   -3   -3    8    5   -0.000009   -0.000000
   -3   -3   -3    9    5   -0.000000    0.000000
   -3   -3   -3   10    5   -0.000009   -0.000000
   -3   -3   -3   11    5   -0.000000   -0.000000
   -3   -3   -3   12    5    0.000000   -0.000000
   -3   -3   -3   13    5   -0.000000   -0.000000
   -3   -3   -3   14    5   -0.000000   -0.000000
   -3   -3   -3    1    6   -0.000000   -0.000000
   -3   -3   -3    2    6   -0.000009    0.000000
   -3   -3   -3    3    6    0.000000    0.000000
   -3   -3   -3    4    6    0.000000   -0.000000
   -3   -3   -3    5    6    0.000000    0.000000
   -3   -3   -3    6    6   -0.000099    0.000000
   -3   -3   -3    7    6   -0.000000   -0.000000
   -3   -3   -3    8    6    0.000000    0.000000
   -3   -3   -3    9    6    0.000002    0.000000
   -3   -3   -3   10    6    0.000000   -0.000000
   -3   -3   -3   11    6   -0.000000    0.000000
   -3   -3   -3   12    6   -0.000010   -0.000000
   -3   -3   -3   13    6    0.000006    0.000000
   -3   -3   -3   14    6    0.000000    0.000000
   -3   -3   -3    1    7   -0.000010    0.000000
   -3   -3   -3    2    7    0.000000    0.000000
   -3   -3   -3    3    7   -0.000000   -0.000000
   -3   -3   -3    4    7    0.000018    0.000000
   -3   -3   -3    5    7   -0.000000   -0.000000
   -3   -3   -3    6    7   -0.000000    0.000000
   -3   -3   -3    7    7   -0.000106    0.000000
   -3   -3   -3    8    7    0.000000    0.000000
   -3   -3   -3    9    7   -0.000000   -0.000000
   -3   -3   -3   10    7   -0.000010   -0.000000
   -3   -3   -3   11    7    0.000005    0.000000
   -3   -3   -3   12    7    0.000005    0.000000
   -3   -3   -3   13    7   -0.000010   -0.000000
   -3   -3   -3   14    7    0.000000    0.000000
   -3   -3   -3    1    8    0.000000   -0.000000
   -3   -3   -3    2    8    0.000000    0.000000
   -3   -3   -3    3    8    0.000000    0.000000
   -3   -3   -3    4    8   -0.000000    0.000000
   -3   -3   -3    5    8   -0.000009    0.000000
   -3   -3   -3    6    8    0.000000   -0.000000
   -3   -3   -3    7    8    0.000000   -0.000000
   -3   -3   -3    8    8   -0.000099    0.000000
   -3   -3   -3    9    8    0.000000    0.000000
   -3   -3   -3   10    8    0.000006    0.000000
   -3   -3   -3   11    8   -0.000010    0.000000
   -3   -3   -3   12    8    0.000000   -0.000000
   -3   -3   -3   13    8   -0.000000    0.000000
   -3   -3   -3   14    8    0.000002    0.000000
   -3   -3   -3    1    9   -0.000000    0.000000
   -3   -3   -3    2    9   -0.000000    0.000000
   -3   -3   -3    3    9   -0.000009   -0.000000
   -3   -3   -3    4    9   -0.000000    0.000000
   -3   -3   -3    5    9   -0.000000   -0.000000
   -3   -3   -3    6    9    0.000002   -0.000000
   -3   -3   -3    7    9   -0.000000    0.000000
   -3   -3   -3    8    9    0.000000   -0.000000
   -3   -3   -3    9    9   -0.000099    0.000000
   -3   -3   -3   10    9    0.000000   -0.000000
   -3   -3   -3   11    9   -0.000000    0.000000
   -3   -3   -3   12    9   -0.000010   -0.000000
   -3   -3   -3   13    9   -0.000000   -0.000000
   -3   -3   -3   14    9    0.000006    0.000000
   -3   -3   -3    1   10   -0.000000   -0.000000
   -3   -3   -3    2   10    0.000000    0.000000
   -3   -3   -3    3   10    0.000000    0.000000
   -3   -3   -3    4   10   -0.000000    0.000000
   -3   -3   -3    5   10   -0.000009    0.000000
   -3   -3   -3    6   10    0.000000    0.000000
   -3   -3   -3    7   10   -0.000010    0.000000
   -3   -3   -3    8   10    0.000006   -0.000000
   -3   -3   -3    9   10    0.000000    0.000000
   -3   -3   -3   10   10   -0.000099    0.000000
   -3   -3   -3   11   10   -0.000000   -0.000000
   -3   -3   -3   12   10   -0.000000   -0.000000
   -3   -3   -3   13   10    0.000002   -0.000000
   -3   -3   -3   14   10   -0.000000    0.000000
   -3   -3   -3    1   11   -0.000010    0.000000
   -3   -3   -3    2   11    0.000000   -0.000000
   -3   -3   -3    3   11    0.000000    0.000000
   -3   -3   -3    4   11   -0.000018   -0.000000
   -3   -3   -3    5   11   -0.000000    0.000000
   -3   -3   -3    6   11   -0.000000   -0.000000
   -3   -3   -3    7   11    0.000005   -0.000000
   -3   -3   -3    8   11   -0.000010   -0.000000
   -3   -3   -3    9   11   -0.000000   -0.000000
   -3   -3   -3   10   11   -0.000000    0.000000
   -3   -3   -3   11   11   -0.000106    0.000000
   -3   -3   -3   12   11    0.000005    0.000000
   -3   -3   -3   13   11    0.000000    0.000000
   -3   -3   -3   14   11   -0.000010   -0.000000
   -3   -3   -3    1   12    0.000021   -0.000000
   -3   -3   -3    2   12   -0.000000    0.000000
   -3   -3   -3    3   12   -0.000000    0.000000
   -3   -3   -3    4   12   -0.000000   -0.000000
   -3   -3   -3    5   12    0.000000    0.000000
   -3   -3   -3    6   12   -0.000010    0.000000
   -3   -3   -3    7   12    0.000005   -0.000000
   -3   -3   -3    8   12    0.000000    0.000000
   -3   -3   -3    9   12   -0.000010    0.000000
   -3   -3   -3   10   12   -0.000000    0.000000
   -3   -3   -3   11   12    0.000005   -0.000000
   -3   -3   -3   12   12   -0.000106    0.000000
   -3   -3   -3   13   12    0.000000   -0.000000
   -3   -3   -3   14   12   -0.000000   -0.000000
   -3   -3   -3    1   13   -0.000000   -0.000000
   -3   -3   -3    2   13   -0.000009    0.000000
   -3   -3   -3    3   13    0.000000    0.000000
   -3   -3   -3    4   13   -0.000000   -0.000000
   -3   -3   -3    5   13   -0.000000    0.000000
   -3   -3   -3    6   13    0.000006   -0.000000
   -3   -3   -3    7   13   -0.000010    0.000000
   -3   -3   -3    8   13   -0.000000   -0.000000
   -3   -3   -3    9   13   -0.000000    0.000000
   -3   -3   -3   10   13    0.000002    0.000000
   -3   -3   -3   11   13    0.000000   -0.000000
   -3   -3   -3   12   13    0.000000    0.000000
   -3   -3   -3   13   13   -0.000099    0.000000
   -3   -3   -3   14   13   -0.000000   -0.000000
   -3   -3   -3    1   14    0.000000   -0.000000
   -3   -3   -3    2   14   -0.000000    0.000000
   -3   -3   -3    3   14   -0.000009   -0.000000
   -3   -3   -3    4   14   -0.000000    0.000000
   -3   -3   -3    5   14   -0.000000    0.000000
   -3   -3   -3    6   14    0.000000   -0.000000
   -3   -3   -3    7   14    0.000000   -0.000000
   -3   -3   -3    8   14    0.000002   -0.000000
   -3   -3   -3    9   14    0.000006   -0.000000
   -3   -3   -3   10   14   -0.000000   -0.000000
   -3   -3   -3   11   14   -0.000010    0.000000
   -3   -3   -3   12   14   -0.000000    0.000000
   -3   -3   -3   13   14   -0.000000    0.000000
   -3   -3   -3   14   14   -0.000099    0.000000
   -3   -3   -2    1    1    0.000004   -0.000000
   -3   -3   -2    2    1   -0.000000   -0.000000
   -3   -3   -2    3    1    0.000000    0.000000
   -3   -3   -2    4    1    0.000000    0.000000
   -3   -3   -2    5    1    0.000000    0.000000
   -3   -3   -2    6    1   -0.000002   -0.000000
   -3   -3   -2    7    1    0.000002    0.000000
   -3   -3   -2    8    1   -0.000000    0.000000
   -3   -3   -2    9    1   -0.000002    0.000000
   -3   -3   -2   10    1   -0.000000    0.000000
   -3   -3   -2   11    1    0.000002   -0.000000
   -3   -3   -2   12    1    0.000002    0.000000
   -3   -3   -2   13    1    0.000000   -0.000000
   -3   -3   -2   14    1   -0.000000   -0.000000
   -3   -3   -2    1    2    0.000000   -0.000000
   -3   -3   -2    2    2    0.000016    0.000000
   -3   -3   -2    3    2   -0.000000   -0.000000
   -3   -3   -2    4    2    0.000000    0.000000
   -3   -3   -2    5    2   -0.000000   -0.000000
   -3   -3   -2    6    2    0.000000   -0.000000
   -3   -3   -2    7    2    0.000001   -0.000000
   -3   -3   -2    8    2    0.000000    0.000000
   -3   -3   -2    9    2   -0.000000    0.000000
   -3   -3   -2   10    2    0.000004    0.000000
   -3   -3   -2   11    2   -0.000000    0.000000
   -3   -3   -2   12    2    0.000000    0.000000
   -3   -3   -2   13    2   -0.000013   -0.000000
   -3   -3   -2   14    2    0.000000   -0.000000
   -3   -3   -2    1    3    0.000000   -0.000000
   -3   -3   -2    2    3    0.000000    0.000000
   -3   -3   -2    3    3    0.000016    0.000000
   -3   -3   -2    4    3   -0.000000   -0.000000
   -3   -3   -2    5    3    0.000000   -0.000000
   -3   -3   -2    6    3   -0.000000    0.000000
   -3   -3   -2    7    3    0.000000    0.000000
   -3   -3   -2    8    3    0.000004   -0.000000
   -3   -3   -2    9    3    0.000000    0.000000
   -3   -3   -2   10    3   -0.000000   -0.000000
   -3   -3   -2   11    3    0.000001    0.000000
   -3   -3   -2   12    3    0.000000   -0.000000
   -3   -3   -2   13    3    0.000000   -0.000000
   -3   -3   -2   14    3   -0.000013   -0.000000
   -3   -3   -2    1    4   -0.000000   -0.000000
   -3   -3   -2    2    4   -0.000000    0.000000
   -3   -3   -2    3    4   -0.000000    0.000000
   -3   -3   -2    4    4    0.000013   -0.000000
   -3   -3   -2    5    4    0.000000    0.000000
   -3   -3   -2    6    4   -0.000008    0.000000
   -3   -3   -2    7    4   -0.000006    0.000000
   -3   -3   -2    8    4    0.000000   -0.000000
   -3   -3   -2    9    4    0.000008    0.000000
   -3   -3   -2   10    4    0.000000   -0.000000
   -3   -3   -2   11    4    0.000006    0.000000
   -3   -3   -2   12    4   -0.000000    0.000000
   -3   -3   -2   13    4   -0.000000   -0.000000
   -3   -3   -2   14    4   -0.000000   -0.000000
   -3   -3   -2    1    5    0.000000   -0.000000
   -3   -3   -2    2    5    0.000000    0.000000
   -3   -3   -2    3    5   -0.000000    0.000000
   -3   -3   -2    4    5   -0.000000    0.000000
   -3   -3   -2    5    5    0.000021   -0.000000
   -3   -3   -2    6    5    0.000000   -0.000000
   -3   -3   -2    7    5   -0.000000   -0.000000
   -3   -3   -2    8    5    0.000003    0.000000
   -3   -3   -2    9    5    0.000000   -0.000000
   -3   -3   -2   10    5    0.000003    0.000000
   -3   -3   -2   11    5   -0.000000    0.000000
   -3   -3   -2   12    5    0.000000   -0.000000
   -3   -3   -2   13    5    0.000000   -0.000000
   -3   -3   -2   14    5   -0.000000   -0.000000
   -3   -3   -2    1    6    0.000002    0.000000
   -3   -3   -2    2    6    0.000000    0.000000
   -3   -3   -2    3    6   -0.000000   -0.000000
   -3   -3   -2    4    6    0.000008    0.000000
   -3   -3   -2    5    6    0.000000    0.000000
   -3   -3   -2    6    6   -0.000017   -0.000000
   -3   -3   -2    7    6   -0.000000    0.000000
   -3   -3   -2    8    6    0.000000    0.000000
   -3   -3   -2    9    6    0.000011    0.000000
   -3   -3   -2   10    6   -0.000008    0.000000
   -3   -3   -2   11    6    0.000009    0.000000
   -3   -3   -2   12    6   -0.000003    0.000000
   -3   -3   -2   13    6   -0.000007   -0.000000
   -3   -3   -2   14    6    0.000000   -0.000000
   -3   -3   -2    1    7    0.000002   -0.000000
   -3   -3   -2    2    7   -0.000001   -0.000000
   -3   -3   -2    3    7    0.000000   -0.000000
   -3   -3   -2    4    7   -0.000006    0.000000
   -3   -3   -2    5    7   -0.000000   -0.000000
   -3   -3   -2    6    7    0.000000   -0.000000
   -3   -3   -2    7    7   -0.000013   -0.000000
   -3   -3   -2    8    7   -0.000000   -0.000000
   -3   -3   -2    9    7   -0.000009   -0.000000
   -3   -3   -2   10    7    0.000000    0.000000
   -3   -3   -2   11    7    0.000002   -0.000000
   -3   -3   -2   12    7   -0.000009    0.000000
   -3   -3   -2   13    7    0.000000    0.000000
   -3   -3   -2   14    7   -0.000000    0.000000
   -3   -3   -2    1    8    0.000000    0.000000
   -3   -3   -2    2    8   -0.000000    0.000000
   -3   -3   -2    3    8   -0.000004   -0.000000
   -3   -3   -2    4    8   -0.000000   -0.000000
   -3   -3   -2    5    8    0.000003    0.000000
   -3   -3   -2    6    8   -0.000000   -0.000000
   -3   -3   -2    7    8    0.000000   -0.000000
   -3   -3   -2    8    8   -0.000024    0.000000
   -3   -3   -2    9    8    0.000008   -0.000000
   -3   -3   -2   10    8    0.000005    0.000000
   -3   -3   -2   11    8    0.000000    0.000000
   -3   -3   -2   12    8   -0.000000   -0.000000
   -3   -3   -2   13    8   -0.000000   -0.000000
   -3   -3   -2   14    8    0.000005   -0.000000
   -3   -3   -2    1    9    0.000002   -0.000000
   -3   -3   -2    2    9   -0.000000    0.000000
   -3   -3   -2    3    9    0.000000   -0.000000
   -3   -3   -2    4    9   -0.000008    0.000000
   -3   -3   -2    5    9    0.000000    0.000000
   -3   -3   -2    6    9    0.000011    0.000000
   -3   -3   -2    7    9    0.000009   -0.000000
   -3   -3   -2    8    9   -0.000008    0.000000
   -3   -3   -2    9    9   -0.000017    0.000000
   -3   -3   -2   10    9   -0.000000   -0.000000
   -3   -3   -2   11    9   -0.000000    0.000000
   -3   -3   -2   12    9   -0.000003   -0.000000
   -3   -3   -2   13    9    0.000000    0.000000
   -3   -3   -2   14    9   -0.000007   -0.000000
   -3   -3   -2    1   10    0.000000   -0.000000
   -3   -3   -2    2   10   -0.000004   -0.000000
   -3   -3   -2    3   10    0.000000   -0.000000
   -3   -3   -2    4   10    0.000000    0.000000
   -3   -3   -2    5   10    0.000003    0.000000
   -3   -3   -2    6   10    0.000008   -0.000000
   -3   -3   -2    7   10    0.000000   -0.000000
   -3   -3   -2    8   10    0.000005   -0.000000
   -3   -3   -2    9   10    0.000000   -0.000000
   -3   -3   -2   10   10   -0.000024    0.000000
   -3   -3   -2   11   10    0.000000   -0.000000
   -3   -3   -2   12   10    0.000000   -0.000000
   -3   -3   -2   13   10    0.000005    0.000000
   -3   -3   -2   14   10   -0.000000   -0.000000
   -3   -3   -2    1   11    0.000002    0.000000
   -3   -3   -2    2   11    0.000000   -0.000000
   -3   -3   -2    3   11   -0.000001    0.000000
   -3   -3   -2    4   11    0.000006    0.000000
   -3   -3   -2    5   11   -0.000000   -0.000000
   -3   -3   -2    6   11   -0.000009    0.000000
   -3   -3   -2    7   11    0.000002   -0.000000
   -3   -3   -2    8   11    0.000000    0.000000
   -3   -3   -2    9   11   -0.000000   -0.000000
   -3   -3   -2   10   11   -0.000000    0.000000
   -3   -3   -2   11   11   -0.000013    0.000000
   -3   -3   -2   12   11   -0.000009   -0.000000
   -3   -3   -2   13   11    0.000000   -0.000000
   -3   -3   -2   14   11    0.000000   -0.000000
   -3   -3   -2    1   12   -0.000021    0.000000
   -3   -3   -2    2   12    0.000000   -0.000000
   -3   -3   -2    3   12    0.000000   -0.000000
   -3   -3   -2    4   12    0.000000    0.000000
   -3   -3   -2    5   12   -0.000000   -0.000000
   -3   -3   -2    6   12   -0.000010    0.000000
   -3   -3   -2    7   12   -0.000005    0.000000
   -3   -3   -2    8   12    0.000000   -0.000000
   -3   -3   -2    9   12   -0.000010    0.000000
   -3   -3   -2   10   12    0.000000   -0.000000
   -3   -3   -2   11   12   -0.000005    0.000000
   -3   -3   -2   12   12   -0.000020   -0.000000
   -3   -3   -2   13   12   -0.000000   -0.000000
   -3   -3   -2   14   12    0.000000    0.000000
   -3   -3   -2    1   13    0.000000    0.000000
   -3   -3   -2    2   13    0.000009   -0.000000
   -3   -3   -2    3   13   -0.000000   -0.000000
   -3   -3   -2    4   13   -0.000000   -0.000000
   -3   -3   -2    5   13    0.000000   -0.000000
   -3   -3   -2    6   13   -0.000006    0.000000
   -3   -3   -2    7   13   -0.000010    0.000000
   -3   -3   -2    8   13   -0.000000    0.000000
   -3   -3   -2    9   13    0.000000   -0.000000
   -3   -3   -2   10   13    0.000002    0.000000
   -3   -3   -2   11   13   -0.000000    0.000000
   -3   -3   -2   12   13   -0.000000   -0.000000
   -3   -3   -2   13   13   -0.000022    0.000000
   -3   -3   -2   14   13    0.000000    0.000000
   -3   -3   -2    1   14    0.000000   -0.000000
   -3   -3   -2    2   14    0.000000   -0.000000
   -3   -3   -2    3   14    0.000009    0.000000
   -3   -3   -2    4   14    0.000000   -0.000000
   -3   -3   -2    5   14    0.000000   -0.000000
   -3   -3   -2    6   14   -0.000000    0.000000
   -3   -3   -2    7   14   -0.000000    0.000000
   -3   -3   -2    8   14    0.000002   -0.000000
   -3   -3   -2    9   14   -0.000006    0.000000
   -3   -3   -2   10   14    0.000000    0.000000
   -3   -3   -2   11   14   -0.000010    0.000000
   -3   -3   -2   12   14    0.000000   -0.000000
   -3   -3   -2   13   14    0.000000   -0.000000
   -3   -3   -2   14   14   -0.000022   -0.000000
   -3   -3   -1    1    1    0.000005    0.000000
   -3   -3   -1    2    1    0.000000   -0.000000
   -3   -3   -1    3    1    0.000000   -0.000000
   -3   -3   -1    4    1    0.000000   -0.000000
   -3   -3   -1    5    1    0.000000    0.000000
   -3   -3   -1    6    1   -0.000011   -0.000000
   -3   -3   -1    7    1    0.000003   -0.000000
   -3   -3   -1    8    1   -0.000000   -0.000000
   -3   -3   -1    9    1   -0.000011   -0.000000
   -3   -3   -1   10    1    0.000000   -0.000000
   -3   -3   -1   11    1    0.000003    0.000000
   -3   -3   -1   12    1   -0.000011    0.000000
   -3   -3   -1   13    1    0.000000   -0.000000
   -3   -3   -1   14    1   -0.000000    0.000000
   -3   -3   -1    1    2   -0.000000    0.000000
   -3   -3   -1    2    2   -0.000015   -0.000000
   -3   -3   -1    3    2    0.000000    0.000000
   -3   -3   -1    4    2    0.000000    0.000000
   -3   -3   -1    5    2    0.000000   -0.000000
   -3   -3   -1    6    2    0.000003    0.000000
   -3   -3   -1    7    2    0.000009    0.000000
   -3   -3   -1    8    2   -0.000000    0.000000
   -3   -3   -1    9    2   -0.000000    0.000000
   -3   -3   -1   10    2   -0.000005   -0.000000
   -3   -3   -1   11    2    0.000000    0.000000
   -3   -3   -1   12    2   -0.000000   -0.000000
   -3   -3   -1   13    2   -0.000011    0.000000
   -3   -3   -1   14    2   -0.000000    0.000000
   -3   -3   -1    1    3   -0.000000   -0.000000
   -3   -3   -1    2    3   -0.000000   -0.000000
   -3   -3   -1    3    3   -0.000015   -0.000000
   -3   -3   -1    4    3   -0.000000    0.000000
   -3   -3   -1    5    3   -0.000000   -0.000000
   -3   -3   -1    6    3   -0.000000    0.000000
   -3   -3   -1    7    3   -0.000000    0.000000
   -3   -3   -1    8    3   -0.000005   -0.000000
   -3   -3   -1    9    3    0.000003    0.000000
   -3   -3   -1   10    3   -0.000000    0.000000
   -3   -3   -1   11    3    0.000009   -0.000000
   -3   -3   -1   12    3    0.000000   -0.000000
   -3   -3   -1   13    3    0.000000    0.000000
   -3   -3   -1   14    3   -0.000011    0.000000
   -3   -3   -1    1    4    0.000000   -0.000000
   -3   -3   -1    2    4   -0.000000   -0.000000
   -3   -3   -1    3    4    0.000000   -0.000000
   -3   -3   -1    4    4   -0.000043   -0.000000
   -3   -3   -1    5    4    0.000000    0.000000
   -3   -3   -1    6    4    0.000013   -0.000000
   -3   -3   -1    7    4    0.000040    0.000000
   -3   -3   -1    8    4    0.000000   -0.000000
   -3   -3   -1    9    4   -0.000013   -0.000000
   -3   -3   -1   10    4    0.000000    0.000000
   -3   -3   -1   11    4   -0.000040   -0.000000
   -3   -3   -1   12    4    0.000000   -0.000000
   -3   -3   -1   13    4    0.000000    0.000000
   -3   -3   -1   14    4   -0.000000    0.000000
   -3   -3   -1    1    5   -0.000000   -0.000000
   -3   -3   -1    2    5    0.000000    0.000000
   -3   -3   -1    3    5   -0.000000    0.000000
   -3   -3   -1    4    5   -0.000000   -0.000000
   -3   -3   -1    5    5   -0.000052    0.000000
   -3   -3   -1    6    5   -0.000000   -0.000000
   -3   -3   -1    7    5   -0.000000    0.000000
   -3   -3   -1    8    5   -0.000006   -0.000000
   -3   -3   -1    9    5   -0.000000    0.000000
   -3   -3   -1   10    5   -0.000006   -0.000000
   -3   -3   -1   11    5    0.000000    0.000000
   -3   -3   -1   12    5    0.000000    0.000000
   -3   -3   -1   13    5    0.000000   -0.000000
   -3   -3   -1   14    5   -0.000000   -0.000000
   -3   -3   -1    1    6    0.000011   -0.000000
   -3   -3   -1    2    6    0.000003    0.000000
   -3   -3   -1    3    6    0.000000   -0.000000
   -3   -3   -1    4    6   -0.000013    0.000000
   -3   -3   -1    5    6    0.000000   -0.000000
   -3   -3   -1    6    6    0.000037    0.000000
   -3   -3   -1    7    6    0.000000    0.000000
   -3   -3   -1    8    6   -0.000000   -0.000000
   -3   -3   -1    9    6   -0.000006   -0.000000
   -3   -3   -1   10    6   -0.000006   -0.000000
   -3   -3   -1   11    6   -0.000002    0.000000
   -3   -3   -1   12    6   -0.000005    0.000000
   -3   -3   -1   13    6   -0.000019    0.000000
   -3   -3   -1   14    6   -0.000000   -0.000000
   -3   -3   -1    1    7    0.000003   -0.000000
   -3   -3   -1    2    7   -0.000009   -0.000000
   -3   -3   -1    3    7   -0.000000   -0.000000
   -3   -3   -1    4    7    0.000040    0.000000
   -3   -3   -1    5    7    0.000000    0.000000
   -3   -3   -1    6    7    0.000000    0.000000
   -3   -3   -1    7    7   -0.000009   -0.000000
   -3   -3   -1    8    7   -0.000000   -0.000000
   -3   -3   -1    9    7    0.000002   -0.000000
   -3   -3   -1   10    7   -0.000003    0.000000
   -3   -3   -1   11    7    0.000031   -0.000000
   -3   -3   -1   12    7   -0.000009    0.000000
   -3   -3   -1   13    7    0.000003   -0.000000
   -3   -3   -1   14    7   -0.000000   -0.000000
   -3   -3   -1    1    8    0.000000   -0.000000
   -3   -3   -1    2    8    0.000000   -0.000000
   -3   -3   -1    3    8    0.000005   -0.000000
   -3   -3   -1    4    8   -0.000000    0.000000
   -3   -3   -1    5    8   -0.000006    0.000000
   -3   -3   -1    6    8   -0.000000   -0.000000
   -3   -3   -1    7    8    0.000000   -0.000000
   -3   -3   -1    8    8    0.000033    0.000000
   -3   -3   -1    9    8    0.000006   -0.000000
   -3   -3   -1   10    8   -0.000004    0.000000
   -3   -3   -1   11    8   -0.000003   -0.000000
   -3   -3   -1   12    8   -0.000000    0.000000
   -3   -3   -1   13    8    0.000000   -0.000000
   -3   -3   -1   14    8    0.000010    0.000000
   -3   -3   -1    1    9    0.000011   -0.000000
   -3   -3   -1    2    9   -0.000000   -0.000000
   -3   -3   -1    3    9    0.000003   -0.000000
   -3   -3   -1    4    9    0.000013   -0.000000
   -3   -3   -1    5    9    0.000000    0.000000
   -3   -3   -1    6    9   -0.000006    0.000000
   -3   -3   -1    7    9   -0.000002   -0.000000
   -3   -3   -1    8    9   -0.000006    0.000000
   -3   -3   -1    9    9    0.000037    0.000000
   -3   -3   -1   10    9    0.000000    0.000000
   -3   -3   -1   11    9    0.000000   -0.000000
   -3   -3   -1   12    9   -0.000005    0.000000
   -3   -3   -1   13    9   -0.000000   -0.000000
   -3   -3   -1   14    9   -0.000019   -0.000000
   -3   -3   -1    1   10   -0.000000    0.000000
   -3   -3   -1    2   10    0.000005   -0.000000
   -3   -3   -1    3   10    0.000000    0.000000
   -3   -3   -1    4   10   -0.000000   -0.000000
   -3   -3   -1    5   10   -0.000006    0.000000
   -3   -3   -1    6   10    0.000006   -0.000000
   -3   -3   -1    7   10   -0.000003   -0.000000
   -3   -3   -1    8   10   -0.000004   -0.000000
   -3   -3   -1    9   10   -0.000000    0.000000
   -3   -3   -1   10   10    0.000033   -0.000000
   -3   -3   -1   11   10    0.000000    0.000000
   -3   -3   -1   12   10    0.000000    0.000000
   -3   -3   -1   13   10    0.000010   -0.000000
   -3   -3   -1   14   10   -0.000000    0.000000
   -3   -3   -1    1   11    0.000003   -0.000000
   -3   -3   -1    2   11   -0.000000    0.000000
   -3   -3   -1    3   11   -0.000009   -0.000000
   -3   -3   -1    4   11   -0.000040    0.000000
   -3   -3   -1    5   11   -0.000000    0.000000
   -3   -3   -1    6   11    0.000002    0.000000
   -3   -3   -1    7   11    0.000031   -0.000000
   -3   -3   -1    8   11   -0.000003    0.000000
   -3   -3   -1    9   11   -0.000000    0.000000
   -3   -3   -1   10   11    0.000000   -0.000000
   -3   -3   -1   11   11   -0.000009   -0.000000
   -3   -3   -1   12   11   -0.000009    0.000000
   -3   -3   -1   13   11    0.000000    0.000000
   -3   -3   -1   14   11    0.000003   -0.000000
   -3   -3   -1    1   12   -0.000002    0.000000
   -3   -3   -1    2   12    0.000000    0.000000
   -3   -3   -1    3   12   -0.000000   -0.000000
   -3   -3   -1    4   12   -0.000000   -0.000000
   -3   -3   -1    5   12   -0.000000    0.000000
   -3   -3   -1    6   12   -0.000003   -0.000000
   -3   -3   -1    7   12    0.000009    0.000000
   -3   -3   -1    8   12   -0.000000   -0.000000
   -3   -3   -1    9   12   -0.000003   -0.000000
   -3   -3   -1   10   12   -0.000000    0.000000
   -3   -3   -1   11   12    0.000009   -0.000000
   -3   -3   -1   12   12    0.000032   -0.000000
   -3   -3   -1   13   12    0.000000   -0.000000
   -3   -3   -1   14   12   -0.000000   -0.000000
   -3   -3   -1    1   13   -0.000000   -0.000000
   -3   -3   -1    2   13    0.000013    0.000000
   -3   -3   -1    3   13   -0.000000   -0.000000
   -3   -3   -1    4   13    0.000000    0.000000
   -3   -3   -1    5   13   -0.000000    0.000000
   -3   -3   -1    6   13    0.000007    0.000000
   -3   -3   -1    7   13    0.000000   -0.000000
   -3   -3   -1    8   13   -0.000000    0.000000
   -3   -3   -1    9   13   -0.000000    0.000000
   -3   -3   -1   10   13    0.000005   -0.000000
   -3   -3   -1   11   13    0.000000    0.000000
   -3   -3   -1   12   13   -0.000000    0.000000
   -3   -3   -1   13   13    0.000032    0.000000
   -3   -3   -1   14   13   -0.000000   -0.000000
   -3   -3   -1    1   14    0.000000    0.000000
   -3   -3   -1    2   14    0.000000   -0.000000
   -3   -3   -1    3   14    0.000013   -0.000000
   -3   -3   -1    4   14    0.000000    0.000000
   -3   -3   -1    5   14    0.000000    0.000000
   -3   -3   -1    6   14    0.000000    0.000000
   -3   -3   -1    7   14   -0.000000   -0.000000
   -3   -3   -1    8   14    0.000005    0.000000
   -3   -3   -1    9   14    0.000007    0.000000
   -3   -3   -1   10   14   -0.000000    0.000000
   -3   -3   -1   11   14    0.000000    0.000000
   -3   -3   -1   12   14    0.000000   -0.000000
   -3   -3   -1   13   14    0.000000   -0.000000
   -3   -3   -1   14   14    0.000032    0.000000
   -3   -3    0    1    1   -0.000027    0.000000
   -3   -3    0    2    1   -0.000000    0.000000
   -3   -3    0    3    1   -0.000000   -0.000000
   -3   -3    0    4    1    0.000000    0.000000
   -3   -3    0    5    1   -0.000000    0.000000
   -3   -3    0    6    1    0.000000   -0.000000
   -3   -3    0    7    1   -0.000022    0.000000
   -3   -3    0    8    1   -0.000000    0.000000
   -3   -3    0    9    1   -0.000000    0.000000
   -3   -3    0   10    1   -0.000000    0.000000
   -3   -3    0   11    1   -0.000022   -0.000000
   -3   -3    0   12    1    0.000011    0.000000
   -3   -3    0   13    1    0.000000   -0.000000
   -3   -3    0   14    1   -0.000000    0.000000
   -3   -3    0    1    2   -0.000000   -0.000000
   -3   -3    0    2    2   -0.000020   -0.000000
   -3   -3    0    3    2    0.000000    0.000000
   -3   -3    0    4    2    0.000000   -0.000000
   -3   -3    0    5    2   -0.000000   -0.000000
   -3   -3    0    6    2   -0.000001    0.000000
   -3   -3    0    7    2    0.000000   -0.000000
   -3   -3    0    8    2   -0.000000   -0.000000
   -3   -3    0    9    2    0.000000   -0.000000
   -3   -3    0   10    2    0.000000    0.000000
   -3   -3    0   11    2    0.000000    0.000000
   -3   -3    0   12    2   -0.000000    0.000000
   -3   -3    0   13    2    0.000011    0.000000
   -3   -3    0   14    2   -0.000000   -0.000000
   -3   -3    0    1    3   -0.000000    0.000000
   -3   -3    0    2    3    0.000000   -0.000000
   -3   -3    0    3    3   -0.000020   -0.000000
   -3   -3    0    4    3    0.000000    0.000000
   -3   -3    0    5    3    0.000000    0.000000
   -3   -3    0    6    3   -0.000000   -0.000000
   -3   -3    0    7    3    0.000000   -0.000000
   -3   -3    0    8    3   -0.000000   -0.000000
   -3   -3    0    9    3   -0.000001   -0.000000
   -3   -3    0   10    3    0.000000    0.000000
   -3   -3    0   11    3   -0.000000    0.000000
   -3   -3    0   12    3    0.000000    0.000000
   -3   -3    0   13    3   -0.000000    0.000000
   -3   -3    0   14    3    0.000011   -0.000000
   -3   -3    0    1    4    0.000000   -0.000000
   -3   -3    0    2    4    0.000000    0.000000
   -3   -3    0    3    4    0.000000   -0.000000
   -3   -3    0    4    4    0.000127   -0.000000
   -3   -3    0    5    4   -0.000000    0.000000
   -3   -3    0    6    4   -0.000000   -0.000000
   -3   -3    0    7    4   -0.000127   -0.000000
   -3   -3    0    8    4    0.000000    0.000000
   -3   -3    0    9    4   -0.000000    0.000000
   -3   -3    0   10    4    0.000000    0.000000
   -3   -3    0   11    4    0.000127   -0.000000
   -3   -3    0   12    4    0.000000   -0.000000
   -3   -3    0   13    4    0.000000    0.000000
   -3   -3    0   14    4    0.000000    0.000000
   -3   -3    0    1    5   -0.000000   -0.000000
   -3   -3    0    2    5   -0.000000    0.000000
   -3   -3    0    3    5    0.000000   -0.000000
   -3   -3    0    4    5   -0.000000   -0.000000
   -3   -3    0    5    5   -0.000031    0.000000
   -3   -3    0    6    5    0.000000   -0.000000
   -3   -3    0    7    5    0.000000    0.000000
   -3   -3    0    8    5   -0.000006   -0.000000
   -3   -3    0    9    5    0.000000   -0.000000
   -3   -3    0   10    5   -0.000006   -0.000000
   -3   -3    0   11    5    0.000000    0.000000
   -3   -3    0   12    5   -0.000000   -0.000000
   -3   -3    0   13    5   -0.000000   -0.000000
   -3   -3    0   14    5   -0.000000    0.000000
   -3   -3    0    1    6    0.000000    0.000000
   -3   -3    0    2    6   -0.000001   -0.000000
   -3   -3    0    3    6   -0.000000    0.000000
   -3   -3    0    4    6   -0.000000    0.000000
   -3   -3    0    5    6    0.000000    0.000000
   -3   -3    0    6    6    0.000026   -0.000000
   -3   -3    0    7    6    0.000000    0.000000
   -3   -3    0    8    6    0.000000    0.000000
   -3   -3    0    9    6   -0.000028    0.000000
   -3   -3    0   10    6    0.000000    0.000000
   -3   -3    0   11    6   -0.000000    0.000000
   -3   -3    0   12    6   -0.000005    0.000000
   -3   -3    0   13    6    0.000019    0.000000
   -3   -3    0   14    6   -0.000000    0.000000
   -3   -3    0    1    7   -0.000022   -0.000000
   -3   -3    0    2    7    0.000000    0.000000
   -3   -3    0    3    7    0.000000    0.000000
   -3   -3    0    4    7   -0.000127    0.000000
   -3   -3    0    5    7    0.000000   -0.000000
   -3   -3    0    6    7    0.000000   -0.000000
   -3   -3    0    7    7    0.000106    0.000000
   -3   -3    0    8    7   -0.000000   -0.000000
   -3   -3    0    9    7   -0.000000   -0.000000
   -3   -3    0   10    7    0.000071   -0.000000
   -3   -3    0   11    7   -0.000138   -0.000000
   -3   -3    0   12    7    0.000009    0.000000
   -3   -3    0   13    7    0.000003   -0.000000
   -3   -3    0   14    7    0.000000    0.000000
   -3   -3    0    1    8   -0.000000   -0.000000
   -3   -3    0    2    8   -0.000000    0.000000
   -3   -3    0    3    8   -0.000000    0.000000
   -3   -3    0    4    8    0.000000   -0.000000
   -3   -3    0    5    8   -0.000006    0.000000
   -3   -3    0    6    8    0.000000   -0.000000
   -3   -3    0    7    8   -0.000000    0.000000
   -3   -3    0    8    8    0.000045   -0.000000
   -3   -3    0    9    8    0.000000    0.000000
   -3   -3    0   10    8   -0.000043    0.000000
   -3   -3    0   11    8    0.000071   -0.000000
   -3   -3    0   12    8   -0.000000   -0.000000
   -3   -3    0   13    8    0.000000    0.000000
   -3   -3    0   14    8    0.000010    0.000000
   -3   -3    0    1    9   -0.000000   -0.000000
   -3   -3    0    2    9    0.000000    0.000000
   -3   -3    0    3    9   -0.000001    0.000000
   -3   -3    0    4    9   -0.000000   -0.000000
   -3   -3    0    5    9    0.000000    0.000000
   -3   -3    0    6    9   -0.000028   -0.000000
   -3   -3    0    7    9   -0.000000    0.000000
   -3   -3    0    8    9    0.000000   -0.000000
   -3   -3    0    9    9    0.000026    0.000000
   -3   -3    0   10    9   -0.000000    0.000000
   -3   -3    0   11    9    0.000000   -0.000000
   -3   -3    0   12    9   -0.000005    0.000000
   -3   -3    0   13    9   -0.000000    0.000000
   -3   -3    0   14    9    0.000019    0.000000
   -3   -3    0    1   10   -0.000000   -0.000000
   -3   -3    0    2   10    0.000000   -0.000000
   -3   -3    0    3   10    0.000000   -0.000000
   -3   -3    0    4   10    0.000000   -0.000000
   -3   -3    0    5   10   -0.000006    0.000000
   -3   -3    0    6   10    0.000000   -0.000000
   -3   -3    0    7   10    0.000071    0.000000
   -3   -3    0    8   10   -0.000043   -0.000000
   -3   -3    0    9   10   -0.000000   -0.000000
   -3   -3    0   10   10    0.000045    0.000000
   -3   -3    0   11   10    0.000000   -0.000000
   -3   -3    0   12   10   -0.000000    0.000000
   -3   -3    0   13   10    0.000010   -0.000000
   -3   -3    0   14   10   -0.000000   -0.000000
   -3   -3    0    1   11   -0.000022    0.000000
   -3   -3    0    2   11    0.000000   -0.000000
   -3   -3    0    3   11   -0.000000   -0.000000
   -3   -3    0    4   11    0.000127    0.000000
   -3   -3    0    5   11    0.000000   -0.000000
   -3   -3    0    6   11   -0.000000   -0.000000
   -3   -3    0    7   11   -0.000138    0.000000
   -3   -3    0    8   11    0.000071    0.000000
   -3   -3    0    9   11    0.000000    0.000000
   -3   -3    0   10   11    0.000000    0.000000
   -3   -3    0   11   11    0.000106   -0.000000
   -3   -3    0   12   11    0.000009   -0.000000
   -3   -3    0   13   11   -0.000000    0.000000
   -3   -3    0   14   11    0.000003   -0.000000
   -3   -3    0    1   12    0.000011   -0.000000
   -3   -3    0    2   12   -0.000000   -0.000000
   -3   -3    0    3   12    0.000000   -0.000000
   -3   -3    0    4   12    0.000000    0.000000
   -3   -3    0    5   12   -0.000000    0.000000
   -3   -3    0    6   12   -0.000005   -0.000000
   -3   -3    0    7   12    0.000009   -0.000000
   -3   -3    0    8   12   -0.000000    0.000000
   -3   -3    0    9   12   -0.000005   -0.000000
   -3   -3    0   10   12   -0.000000   -0.000000
   -3   -3    0   11   12    0.000009    0.000000
   -3   -3    0   12   12    0.000033    0.000000
   -3   -3    0   13   12    0.000000    0.000000
   -3   -3    0   14   12   -0.000000   -0.000000
   -3   -3    0    1   13    0.000000    0.000000
   -3   -3    0    2   13    0.000011   -0.000000
   -3   -3    0    3   13   -0.000000   -0.000000
   -3   -3    0    4   13    0.000000   -0.000000
   -3   -3    0    5   13   -0.000000    0.000000
   -3   -3    0    6   13    0.000019   -0.000000
   -3   -3    0    7   13    0.000003    0.000000
   -3   -3    0    8   13    0.000000   -0.000000
   -3   -3    0    9   13   -0.000000   -0.000000
   -3   -3    0   10   13    0.000010    0.000000
   -3   -3    0   11   13   -0.000000   -0.000000
   -3   -3    0   12   13    0.000000   -0.000000
   -3   -3    0   13   13    0.000181   -0.000000
   -3   -3    0   14   13    0.000000   -0.000000
   -3   -3    0    1   14   -0.000000   -0.000000
   -3   -3    0    2   14   -0.000000    0.000000
   -3   -3    0    3   14    0.000011    0.000000
   -3   -3    0    4   14    0.000000   -0.000000
   -3   -3    0    5   14   -0.000000   -0.000000
   -3   -3    0    6   14   -0.000000   -0.000000
   -3   -3    0    7   14    0.000000   -0.000000
   -3   -3    0    8   14    0.000010   -0.000000
   -3   -3    0    9   14    0.000019   -0.000000
   -3   -3    0   10   14   -0.000000    0.000000
   -3   -3    0   11   14    0.000003    0.000000
   -3   -3    0   12   14   -0.000000    0.000000
   -3   -3    0   13   14    0.000000    0.000000
   -3   -3    0   14   14    0.000181   -0.000000
   -3   -3    1    1    1    0.000005   -0.000000
   -3   -3    1    2    1   -0.000000   -0.000000
   -3   -3    1    3    1   -0.000000    0.000000
   -3   -3    1    4    1    0.000000    0.000000
   -3   -3    1    5    1   -0.000000    0.000000
   -3   -3    1    6    1    0.000011    0.000000
   -3   -3    1    7    1    0.000003    0.000000
   -3   -3    1    8    1    0.000000    0.000000
   -3   -3    1    9    1    0.000011    0.000000
   -3   -3    1   10    1   -0.000000   -0.000000
   -3   -3    1   11    1    0.000003    0.000000
   -3   -3    1   12    1   -0.000002   -0.000000
   -3   -3    1   13    1   -0.000000    0.000000
   -3   -3    1   14    1    0.000000   -0.000000
   -3   -3    1    1    2    0.000000    0.000000
   -3   -3    1    2    2   -0.000015    0.000000
   -3   -3    1    3    2   -0.000000    0.000000
   -3   -3    1    4    2   -0.000000    0.000000
   -3   -3    1    5    2    0.000000   -0.000000
   -3   -3    1    6    2    0.000003   -0.000000
   -3   -3    1    7    2   -0.000009    0.000000
   -3   -3    1    8    2    0.000000    0.000000
   -3   -3    1    9    2   -0.000000    0.000000
   -3   -3    1   10    2    0.000005    0.000000
   -3   -3    1   11    2   -0.000000   -0.000000
   -3   -3    1   12    2    0.000000   -0.000000
   -3   -3    1   13    2    0.000013   -0.000000
   -3   -3    1   14    2    0.000000    0.000000
   -3   -3    1    1    3    0.000000    0.000000
   -3   -3    1    2    3    0.000000   -0.000000
   -3   -3    1    3    3   -0.000015    0.000000
   -3   -3    1    4    3    0.000000    0.000000
   -3   -3    1    5    3   -0.000000   -0.000000
   -3   -3    1    6    3    0.000000    0.000000
   -3   -3    1    7    3   -0.000000    0.000000
   -3   -3    1    8    3    0.000005    0.000000
   -3   -3    1    9    3    0.000003    0.000000
   -3   -3    1   10    3    0.000000   -0.000000
   -3   -3    1   11    3   -0.000009    0.000000
   -3   -3    1   12    3   -0.000000    0.000000
   -3   -3    1   13    3   -0.000000    0.000000
   -3   -3    1   14    3    0.000013    0.000000
   -3   -3    1    1    4    0.000000    0.000000
   -3   -3    1    2    4    0.000000   -0.000000
   -3   -3    1    3    4   -0.000000   -0.000000
   -3   -3    1    4    4   -0.000043    0.000000
   -3   -3    1    5    4   -0.000000    0.000000
   -3   -3    1    6    4   -0.000013   -0.000000
   -3   -3    1    7    4    0.000040   -0.000000
   -3   -3    1    8    4   -0.000000   -0.000000
   -3   -3    1    9    4    0.000013    0.000000
   -3   -3    1   10    4   -0.000000    0.000000
   -3   -3    1   11    4   -0.000040   -0.000000
   -3   -3    1   12    4   -0.000000    0.000000
   -3   -3    1   13    4    0.000000   -0.000000
   -3   -3    1   14    4    0.000000   -0.000000
   -3   -3    1    1    5    0.000000   -0.000000
   -3   -3    1    2    5    0.000000    0.000000
   -3   -3    1    3    5   -0.000000    0.000000
   -3   -3    1    4    5    0.000000   -0.000000
   -3   -3    1    5    5   -0.000052   -0.000000
   -3   -3    1    6    5    0.000000    0.000000
   -3   -3    1    7    5    0.000000   -0.000000
   -3   -3    1    8    5   -0.000006   -0.000000
   -3   -3    1    9    5    0.000000   -0.000000
   -3   -3    1   10    5   -0.000006   -0.000000
   -3   -3    1   11    5   -0.000000   -0.000000
   -3   -3    1   12    5   -0.000000   -0.000000
   -3   -3    1   13    5   -0.000000   -0.000000
   -3   -3    1   14    5    0.000000   -0.000000
   -3   -3    1    1    6   -0.000011    0.000000
   -3   -3    1    2    6    0.000003   -0.000000
   -3   -3    1    3    6   -0.000000   -0.000000
   -3   -3    1    4    6    0.000013    0.000000
   -3   -3    1    5    6   -0.000000    0.000000
   -3   -3    1    6    6    0.000037   -0.000000
   -3   -3    1    7    6    0.000000   -0.000000
   -3   -3    1    8    6   -0.000000    0.000000
   -3   -3    1    9    6   -0.000006   -0.000000
   -3   -3    1   10    6    0.000006    0.000000
   -3   -3    1   11    6    0.000002   -0.000000
   -3   -3    1   12    6   -0.000003    0.000000
   -3   -3    1   13    6    0.000007   -0.000000
   -3   -3    1   14    6    0.000000   -0.000000
   -3   -3    1    1    7    0.000003    0.000000
   -3   -3    1    2    7    0.000009   -0.000000
   -3   -3    1    3    7   -0.000000   -0.000000
   -3   -3    1    4    7    0.000040   -0.000000
   -3   -3    1    5    7   -0.000000   -0.000000
   -3   -3    1    6    7    0.000000   -0.000000
   -3   -3    1    7    7   -0.000009    0.000000
   -3   -3    1    8    7    0.000000    0.000000
   -3   -3    1    9    7   -0.000002    0.000000
   -3   -3    1   10    7   -0.000003    0.000000
   -3   -3    1   11    7    0.000031    0.000000
   -3   -3    1   12    7    0.000009   -0.000000
   -3   -3    1   13    7    0.000000    0.000000
   -3   -3    1   14    7   -0.000000    0.000000
   -3   -3    1    1    8   -0.000000    0.000000
   -3   -3    1    2    8   -0.000000   -0.000000
   -3   -3    1    3    8   -0.000005    0.000000
   -3   -3    1    4    8    0.000000    0.000000
   -3   -3    1    5    8   -0.000006    0.000000
   -3   -3    1    6    8   -0.000000    0.000000
   -3   -3    1    7    8   -0.000000    0.000000
   -3   -3    1    8    8    0.000033   -0.000000
   -3   -3    1    9    8   -0.000006   -0.000000
   -3   -3    1   10    8   -0.000004    0.000000
   -3   -3    1   11    8   -0.000003   -0.000000
   -3   -3    1   12    8   -0.000000    0.000000
   -3   -3    1   13    8   -0.000000   -0.000000
   -3   -3    1   14    8    0.000005   -0.000000
   -3   -3    1    1    9   -0.000011    0.000000
   -3   -3    1    2    9   -0.000000   -0.000000
   -3   -3    1    3    9    0.000003   -0.000000
   -3   -3    1    4    9   -0.000013    0.000000
   -3   -3    1    5    9   -0.000000   -0.000000
   -3   -3    1    6    9   -0.000006    0.000000
   -3   -3    1    7    9    0.000002    0.000000
   -3   -3    1    8    9    0.000006    0.000000
   -3   -3    1    9    9    0.000037   -0.000000
   -3   -3    1   10    9   -0.000000   -0.000000
   -3   -3    1   11    9   -0.000000   -0.000000
   -3   -3    1   12    9   -0.000003    0.000000
   -3   -3    1   13    9   -0.000000   -0.000000
   -3   -3    1   14    9    0.000007   -0.000000
   -3   -3    1    1   10    0.000000    0.000000
   -3   -3    1    2   10   -0.000005    0.000000
   -3   -3    1    3   10   -0.000000   -0.000000
   -3   -3    1    4   10    0.000000   -0.000000
   -3   -3    1    5   10   -0.000006    0.000000
   -3   -3    1    6   10   -0.000006    0.000000
   -3   -3    1    7   10   -0.000003   -0.000000
   -3   -3    1    8   10   -0.000004   -0.000000
   -3   -3    1    9   10    0.000000   -0.000000
   -3   -3    1   10   10    0.000033    0.000000
   -3   -3    1   11   10    0.000000    0.000000
   -3   -3    1   12   10   -0.000000   -0.000000
   -3   -3    1   13   10    0.000005    0.000000
   -3   -3    1   14   10   -0.000000   -0.000000
   -3   -3    1    1   11    0.000003   -0.000000
   -3   -3    1    2   11    0.000000   -0.000000
   -3   -3    1    3   11    0.000009    0.000000
   -3   -3    1    4   11   -0.000040    0.000000
   -3   -3    1    5   11    0.000000   -0.000000
   -3   -3    1    6   11   -0.000002   -0.000000
   -3   -3    1    7   11    0.000031    0.000000
   -3   -3    1    8   11   -0.000003    0.000000
   -3   -3    1    9   11    0.000000    0.000000
   -3   -3    1   10   11    0.000000   -0.000000
   -3   -3    1   11   11   -0.000009    0.000000
   -3   -3    1   12   11    0.000009    0.000000
   -3   -3    1   13   11    0.000000   -0.000000
   -3   -3    1   14   11    0.000000   -0.000000
   -3   -3    1    1   12   -0.000011   -0.000000
   -3   -3    1    2   12   -0.000000    0.000000
   -3   -3    1    3   12    0.000000    0.000000
   -3   -3    1    4   12    0.000000    0.000000
   -3   -3    1    5   12    0.000000   -0.000000
   -3   -3    1    6   12   -0.000005   -0.000000
   -3   -3    1    7   12   -0.000009   -0.000000
   -3   -3    1    8   12   -0.000000   -0.000000
   -3   -3    1    9   12   -0.000005   -0.000000
   -3   -3    1   10   12    0.000000   -0.000000
   -3   -3    1   11   12   -0.000009   -0.000000
   -3   -3    1   12   12    0.000032    0.000000
   -3   -3    1   13   12   -0.000000   -0.000000
   -3   -3    1   14   12    0.000000    0.000000
   -3   -3    1    1   13    0.000000    0.000000
   -3   -3    1    2   13   -0.000011   -0.000000
   -3   -3    1    3   13    0.000000   -0.000000
   -3   -3    1    4   13    0.000000   -0.000000
   -3   -3    1    5   13    0.000000    0.000000
   -3   -3    1    6   13   -0.000019   -0.000000
   -3   -3    1    7   13    0.000003    0.000000
   -3   -3    1    8   13    0.000000    0.000000
   -3   -3    1    9   13   -0.000000    0.000000
   -3   -3    1   10   13    0.000010    0.000000
   -3   -3    1   11   13    0.000000   -0.000000
   -3   -3    1   12   13    0.000000    0.000000
   -3   -3    1   13   13    0.000032   -0.000000
   -3   -3    1   14   13    0.000000    0.000000
   -3   -3    1    1   14   -0.000000   -0.000000
   -3   -3    1    2   14   -0.000000   -0.000000
   -3   -3    1    3   14   -0.000011   -0.000000
   -3   -3    1    4   14   -0.000000   -0.000000
   -3   -3    1    5   14   -0.000000    0.000000
   -3   -3    1    6   14   -0.000000    0.000000
   -3   -3    1    7   14   -0.000000    0.000000
   -3   -3    1    8   14    0.000010   -0.000000
   -3   -3    1    9   14   -0.000019    0.000000
   -3   -3    1   10   14   -0.000000   -0.000000
   -3   -3    1   11   14    0.000003    0.000000
   -3   -3    1   12   14   -0.000000    0.000000
   -3   -3    1   13   14   -0.000000    0.000000
   -3   -3    1   14   14    0.000032   -0.000000
   -3   -3    2    1    1    0.000004    0.000000
   -3   -3    2    2    1    0.000000    0.000000
   -3   -3    2    3    1    0.000000    0.000000
   -3   -3    2    4    1   -0.000000    0.000000
   -3   -3    2    5    1    0.000000    0.000000
   -3   -3    2    6    1    0.000002   -0.000000
   -3   -3    2    7    1    0.000002    0.000000
   -3   -3    2    8    1    0.000000   -0.000000
   -3   -3    2    9    1    0.000002    0.000000
   -3   -3    2   10    1    0.000000    0.000000
   -3   -3    2   11    1    0.000002   -0.000000
   -3   -3    2   12    1   -0.000021   -0.000000
   -3   -3    2   13    1    0.000000   -0.000000
   -3   -3    2   14    1    0.000000    0.000000
   -3   -3    2    1    2   -0.000000    0.000000
   -3   -3    2    2    2    0.000016   -0.000000
   -3   -3    2    3    2    0.000000   -0.000000
   -3   -3    2    4    2   -0.000000   -0.000000
   -3   -3    2    5    2    0.000000   -0.000000
   -3   -3    2    6    2    0.000000   -0.000000
   -3   -3    2    7    2   -0.000001    0.000000
   -3   -3    2    8    2   -0.000000   -0.000000
   -3   -3    2    9    2   -0.000000   -0.000000
   -3   -3    2   10    2   -0.000004    0.000000
   -3   -3    2   11    2    0.000000    0.000000
   -3   -3    2   12    2    0.000000    0.000000
   -3   -3    2   13    2    0.000009    0.000000
   -3   -3    2   14    2    0.000000    0.000000
   -3   -3    2    1    3    0.000000   -0.000000
   -3   -3    2    2    3   -0.000000    0.000000
   -3   -3    2    3    3    0.000016   -0.000000
   -3   -3    2    4    3   -0.000000   -0.000000
   -3   -3    2    5    3   -0.000000   -0.000000
   -3   -3    2    6    3   -0.000000    0.000000
   -3   -3    2    7    3    0.000000    0.000000
   -3   -3    2    8    3   -0.000004    0.000000
   -3   -3    2    9    3    0.000000    0.000000
   -3   -3    2   10    3    0.000000    0.000000
   -3   -3    2   11    3   -0.000001   -0.000000
   -3   -3    2   12    3    0.000000    0.000000
   -3   -3    2   13    3   -0.000000    0.000000
   -3   -3    2   14    3    0.000009   -0.000000
   -3   -3    2    1    4    0.000000   -0.000000
   -3   -3    2    2    4    0.000000   -0.000000
   -3   -3    2    3    4   -0.000000    0.000000
   -3   -3    2    4    4    0.000013    0.000000
   -3   -3    2    5    4   -0.000000   -0.000000
   -3   -3    2    6    4    0.000008   -0.000000
   -3   -3    2    7    4   -0.000006   -0.000000
   -3   -3    2    8    4   -0.000000    0.000000
   -3   -3    2    9    4   -0.000008   -0.000000
   -3   -3    2   10    4    0.000000   -0.000000
   -3   -3    2   11    4    0.000006   -0.000000
   -3   -3    2   12    4    0.000000   -0.000000
   -3   -3    2   13    4   -0.000000    0.000000
   -3   -3    2   14    4    0.000000    0.000000
   -3   -3    2    1    5    0.000000   -0.000000
   -3   -3    2    2    5   -0.000000    0.000000
   -3   -3    2    3    5    0.000000    0.000000
   -3   -3    2    4    5    0.000000   -0.000000
   -3   -3    2    5    5    0.000021    0.000000
   -3   -3    2    6    5    0.000000   -0.000000
   -3   -3    2    7    5   -0.000000    0.000000
   -3   -3    2    8    5    0.000003   -0.000000
   -3   -3    2    9    5    0.000000   -0.000000
   -3   -3    2   10    5    0.000003   -0.000000
   -3   -3    2   11    5   -0.000000    0.000000
   -3   -3    2   12    5   -0.000000    0.000000
   -3   -3    2   13    5    0.000000    0.000000
   -3   -3    2   14    5    0.000000    0.000000
   -3   -3    2    1    6   -0.000002    0.000000
   -3   -3    2    2    6    0.000000    0.000000
   -3   -3    2    3    6   -0.000000   -0.000000
   -3   -3    2    4    6   -0.000008   -0.000000
   -3   -3    2    5    6    0.000000    0.000000
   -3   -3    2    6    6   -0.000017    0.000000
   -3   -3    2    7    6    0.000000    0.000000
   -3   -3    2    8    6   -0.000000    0.000000
   -3   -3    2    9    6    0.000011   -0.000000
   -3   -3    2   10    6    0.000008    0.000000
   -3   -3    2   11    6   -0.000009   -0.000000
   -3   -3    2   12    6   -0.000010   -0.000000
   -3   -3    2   13    6   -0.000006   -0.000000
   -3   -3    2   14    6   -0.000000   -0.000000
   -3   -3    2    1    7    0.000002   -0.000000
   -3   -3    2    2    7    0.000001    0.000000
   -3   -3    2    3    7    0.000000   -0.000000
   -3   -3    2    4    7   -0.000006   -0.000000
   -3   -3    2    5    7   -0.000000    0.000000
   -3   -3    2    6    7   -0.000000   -0.000000
   -3   -3    2    7    7   -0.000013    0.000000
   -3   -3    2    8    7    0.000000    0.000000
   -3   -3    2    9    7    0.000009    0.000000
   -3   -3    2   10    7    0.000000    0.000000
   -3   -3    2   11    7    0.000002    0.000000
   -3   -3    2   12    7   -0.000005   -0.000000
   -3   -3    2   13    7   -0.000010   -0.000000
   -3   -3    2   14    7   -0.000000   -0.000000
   -3   -3    2    1    8   -0.000000   -0.000000
   -3   -3    2    2    8    0.000000   -0.000000
   -3   -3    2    3    8    0.000004    0.000000
   -3   -3    2    4    8    0.000000    0.000000
   -3   -3    2    5    8    0.000003   -0.000000
   -3   -3    2    6    8    0.000000   -0.000000
   -3   -3    2    7    8   -0.000000    0.000000
   -3   -3    2    8    8   -0.000024   -0.000000
   -3   -3    2    9    8   -0.000008   -0.000000
   -3   -3    2   10    8    0.000005    0.000000
   -3   -3    2   11    8    0.000000   -0.000000
   -3   -3    2   12    8    0.000000    0.000000
   -3   -3    2   13    8   -0.000000   -0.000000
   -3   -3    2   14    8    0.000002    0.000000
   -3   -3    2    1    9   -0.000002   -0.000000
   -3   -3    2    2    9   -0.000000   -0.000000
   -3   -3    2    3    9    0.000000   -0.000000
   -3   -3    2    4    9    0.000008   -0.000000
   -3   -3    2    5    9    0.000000    0.000000
   -3   -3    2    6    9    0.000011   -0.000000
   -3   -3    2    7    9   -0.000009    0.000000
   -3   -3    2    8    9    0.000008    0.000000
   -3   -3    2    9    9   -0.000017   -0.000000
   -3   -3    2   10    9    0.000000    0.000000
   -3   -3    2   11    9   -0.000000    0.000000
   -3   -3    2   12    9   -0.000010   -0.000000
   -3   -3    2   13    9    0.000000    0.000000
   -3   -3    2   14    9   -0.000006   -0.000000
   -3   -3    2    1   10   -0.000000   -0.000000
   -3   -3    2    2   10    0.000004   -0.000000
   -3   -3    2    3   10   -0.000000    0.000000
   -3   -3    2    4   10    0.000000    0.000000
   -3   -3    2    5   10    0.000003   -0.000000
   -3   -3    2    6   10   -0.000008   -0.000000
   -3   -3    2    7   10    0.000000   -0.000000
   -3   -3    2    8   10    0.000005   -0.000000
   -3   -3    2    9   10   -0.000000    0.000000
   -3   -3    2   10   10   -0.000024   -0.000000
   -3   -3    2   11   10   -0.000000   -0.000000
   -3   -3    2   12   10    0.000000    0.000000
   -3   -3    2   13   10    0.000002   -0.000000
   -3   -3    2   14   10    0.000000   -0.000000
   -3   -3    2    1   11    0.000002    0.000000
   -3   -3    2    2   11   -0.000000   -0.000000
   -3   -3    2    3   11    0.000001   -0.000000
   -3   -3    2    4   11    0.000006   -0.000000
   -3   -3    2    5   11   -0.000000   -0.000000
   -3   -3    2    6   11    0.000009   -0.000000
   -3   -3    2    7   11    0.000002    0.000000
   -3   -3    2    8   11    0.000000   -0.000000
   -3   -3    2    9   11   -0.000000   -0.000000
   -3   -3    2   10   11    0.000000    0.000000
   -3   -3    2   11   11   -0.000013   -0.000000
   -3   -3    2   12   11   -0.000005   -0.000000
   -3   -3    2   13   11   -0.000000   -0.000000
   -3   -3    2   14   11   -0.000010   -0.000000
   -3   -3    2    1   12    0.000002   -0.000000
   -3   -3    2    2   12    0.000000   -0.000000
   -3   -3    2    3   12    0.000000    0.000000
   -3   -3    2    4   12   -0.000000   -0.000000
   -3   -3    2    5   12    0.000000    0.000000
   -3   -3    2    6   12   -0.000003   -0.000000
   -3   -3    2    7   12   -0.000009   -0.000000
   -3   -3    2    8   12   -0.000000    0.000000
   -3   -3    2    9   12   -0.000003    0.000000
   -3   -3    2   10   12    0.000000    0.000000
   -3   -3    2   11   12   -0.000009    0.000000
   -3   -3    2   12   12   -0.000020    0.000000
   -3   -3    2   13   12   -0.000000    0.000000
   -3   -3    2   14   12    0.000000    0.000000
   -3   -3    2    1   13    0.000000    0.000000
   -3   -3    2    2   13   -0.000013    0.000000
   -3   -3    2    3   13    0.000000    0.000000
   -3   -3    2    4   13   -0.000000    0.000000
   -3   -3    2    5   13    0.000000    0.000000
   -3   -3    2    6   13   -0.000007    0.000000
   -3   -3    2    7   13    0.000000   -0.000000
   -3   -3    2    8   13   -0.000000    0.000000
   -3   -3    2    9   13    0.000000   -0.000000
   -3   -3    2   10   13    0.000005   -0.000000
   -3   -3    2   11   13    0.000000    0.000000
   -3   -3    2   12   13   -0.000000    0.000000
   -3   -3    2   13   13   -0.000022   -0.000000
   -3   -3    2   14   13    0.000000    0.000000
   -3   -3    2    1   14   -0.000000    0.000000
   -3   -3    2    2   14    0.000000    0.000000
   -3   -3    2    3   14   -0.000013    0.000000
   -3   -3    2    4   14   -0.000000    0.000000
   -3   -3    2    5   14   -0.000000    0.000000
   -3   -3    2    6   14    0.000000    0.000000
   -3   -3    2    7   14   -0.000000   -0.000000
   -3   -3    2    8   14    0.000005    0.000000
   -3   -3    2    9   14   -0.000007    0.000000
   -3   -3    2   10   14   -0.000000    0.000000
   -3   -3    2   11   14    0.000000    0.000000
   -3   -3    2   12   14    0.000000   -0.000000
   -3   -3    2   13   14    0.000000   -0.000000
   -3   -3    2   14   14   -0.000022    0.000000
   -3   -3    3    1    1   -0.000005   -0.000000
   -3   -3    3    2    1    0.000000   -0.000000
   -3   -3    3    3    1   -0.000000   -0.000000
   -3   -3    3    4    1    0.000000   -0.000000
   -3   -3    3    5    1    0.000000    0.000000
   -3   -3    3    6    1   -0.000000    0.000000
   -3   -3    3    7    1   -0.000010   -0.000000
   -3   -3    3    8    1    0.000000    0.000000
   -3   -3    3    9    1   -0.000000   -0.000000
   -3   -3    3   10    1   -0.000000    0.000000
   -3   -3    3   11    1   -0.000010   -0.000000
   -3   -3    3   12    1    0.000021    0.000000
   -3   -3    3   13    1   -0.000000    0.000000
   -3   -3    3   14    1    0.000000    0.000000
   -3   -3    3    1    2    0.000000    0.000000
   -3   -3    3    2    2    0.000048   -0.000000
   -3   -3    3    3    2    0.000000   -0.000000
   -3   -3    3    4    2   -0.000000   -0.000000
   -3   -3    3    5    2   -0.000000    0.000000
   -3   -3    3    6    2   -0.000009   -0.000000
   -3   -3    3    7    2    0.000000   -0.000000
   -3   -3    3    8    2    0.000000   -0.000000
   -3   -3    3    9    2   -0.000000   -0.000000
   -3   -3    3   10    2    0.000000   -0.000000
   -3   -3    3   11    2    0.000000    0.000000
   -3   -3    3   12    2   -0.000000   -0.000000
   -3   -3    3   13    2   -0.000009   -0.000000
   -3   -3    3   14    2   -0.000000   -0.000000
   -3   -3    3    1    3   -0.000000    0.000000
   -3   -3    3    2    3    0.000000    0.000000
   -3   -3    3    3    3    0.000048   -0.000000
   -3   -3    3    4    3    0.000000    0.000000
   -3   -3    3    5    3    0.000000    0.000000
   -3   -3    3    6    3    0.000000   -0.000000
   -3   -3    3    7    3   -0.000000    0.000000
   -3   -3    3    8    3    0.000000   -0.000000
   -3   -3    3    9    3   -0.000009    0.000000
   -3   -3    3   10    3    0.000000   -0.000000
   -3   -3    3   11    3    0.000000   -0.000000
   -3   -3    3   12    3   -0.000000   -0.000000
   -3   -3    3   13    3    0.000000   -0.000000
   -3   -3    3   14    3   -0.000009    0.000000
   -3   -3    3    1    4    0.000000    0.000000
   -3   -3    3    2    4   -0.000000    0.000000
   -3   -3    3    3    4    0.000000   -0.000000
   -3   -3    3    4    4   -0.000005   -0.000000
   -3   -3    3    5    4   -0.000000    0.000000
   -3   -3    3    6    4    0.000000    0.000000
   -3   -3    3    7    4    0.000018   -0.000000
   -3   -3    3    8    4   -0.000000   -0.000000
   -3   -3    3    9    4   -0.000000   -0.000000
   -3   -3    3   10    4   -0.000000   -0.000000
   -3   -3    3   11    4   -0.000018    0.000000
   -3   -3    3   12    4   -0.000000    0.000000
   -3   -3    3   13    4   -0.000000    0.000000
   -3   -3    3   14    4   -0.000000   -0.000000
   -3   -3    3    1    5    0.000000   -0.000000
   -3   -3    3    2    5   -0.000000   -0.000000
   -3   -3    3    3    5    0.000000   -0.000000
   -3   -3    3    4    5   -0.000000   -0.000000
   -3   -3    3    5    5    0.000048   -0.000000
   -3   -3    3    6    5    0.000000   -0.000000
   -3   -3    3    7    5   -0.000000    0.000000
   -3   -3    3    8    5   -0.000009   -0.000000
   -3   -3    3    9    5   -0.000000    0.000000
   -3   -3    3   10    5   -0.000009   -0.000000
   -3   -3    3   11    5   -0.000000   -0.000000
   -3   -3    3   12    5    0.000000   -0.000000
   -3   -3    3   13    5   -0.000000   -0.000000
   -3   -3    3   14    5   -0.000000   -0.000000
   -3   -3    3    1    6   -0.000000   -0.000000
   -3   -3    3    2    6   -0.000009    0.000000
   -3   -3    3    3    6    0.000000    0.000000
   -3   -3    3    4    6    0.000000   -0.000000
   -3   -3    3    5    6    0.000000    0.000000
   -3   -3    3    6    6   -0.000099   -0.000000
   -3   -3    3    7    6   -0.000000   -0.000000
   -3   -3    3    8    6    0.000000    0.000000
   -3   -3    3    9    6    0.000002    0.000000
   -3   -3    3   10    6    0.000000   -0.000000
   -3   -3    3   11    6   -0.000000    0.000000
   -3   -3    3   12    6   -0.000010   -0.000000
   -3   -3    3   13    6    0.000006    0.000000
   -3   -3    3   14    6    0.000000    0.000000
   -3   -3    3    1    7   -0.000010    0.000000
   -3   -3    3    2    7    0.000000    0.000000
   -3   -3    3    3    7   -0.000000   -0.000000
   -3   -3    3    4    7    0.000018    0.000000
   -3   -3    3    5    7   -0.000000   -0.000000
   -3   -3    3    6    7   -0.000000    0.000000
   -3   -3    3    7    7   -0.000106   -0.000000
   -3   -3    3    8    7    0.000000    0.000000
   -3   -3    3    9    7   -0.000000   -0.000000
   -3   -3    3   10    7   -0.000010   -0.000000
   -3   -3    3   11    7    0.000005    0.000000
   -3   -3    3   12    7    0.000005    0.000000
   -3   -3    3   13    7   -0.000010   -0.000000
   -3   -3    3   14    7    0.000000    0.000000
   -3   -3    3    1    8    0.000000   -0.000000
   -3   -3    3    2    8    0.000000    0.000000
   -3   -3    3    3    8    0.000000    0.000000
   -3   -3    3    4    8   -0.000000    0.000000
   -3   -3    3    5    8   -0.000009    0.000000
   -3   -3    3    6    8    0.000000   -0.000000
   -3   -3    3    7    8    0.000000   -0.000000
   -3   -3    3    8    8   -0.000099   -0.000000
   -3   -3    3    9    8    0.000000    0.000000
   -3   -3    3   10    8    0.000006    0.000000
   -3   -3    3   11    8   -0.000010    0.000000
   -3   -3    3   12    8    0.000000   -0.000000
   -3   -3    3   13    8   -0.000000    0.000000
   -3   -3    3   14    8    0.000002    0.000000
   -3   -3    3    1    9   -0.000000    0.000000
   -3   -3    3    2    9   -0.000000    0.000000
   -3   -3    3    3    9   -0.000009   -0.000000
   -3   -3    3    4    9   -0.000000    0.000000
   -3   -3    3    5    9   -0.000000   -0.000000
   -3   -3    3    6    9    0.000002   -0.000000
   -3   -3    3    7    9   -0.000000    0.000000
   -3   -3    3    8    9    0.000000   -0.000000
   -3   -3    3    9    9   -0.000099   -0.000000
   -3   -3    3   10    9    0.000000   -0.000000
   -3   -3    3   11    9   -0.000000    0.000000
   -3   -3    3   12    9   -0.000010   -0.000000
   -3   -3    3   13    9   -0.000000   -0.000000
   -3   -3    3   14    9    0.000006    0.000000
   -3   -3    3    1   10   -0.000000   -0.000000
   -3   -3    3    2   10    0.000000    0.000000
   -3   -3    3    3   10    0.000000    0.000000
   -3   -3    3    4   10   -0.000000    0.000000
   -3   -3    3    5   10   -0.000009    0.000000
   -3   -3    3    6   10    0.000000    0.000000
   -3   -3    3    7   10   -0.000010    0.000000
   -3   -3    3    8   10    0.000006   -0.000000
   -3   -3    3    9   10    0.000000    0.000000
   -3   -3    3   10   10   -0.000099   -0.000000
   -3   -3    3   11   10   -0.000000   -0.000000
   -3   -3    3   12   10   -0.000000   -0.000000
   -3   -3    3   13   10    0.000002   -0.000000
   -3   -3    3   14   10   -0.000000    0.000000
   -3   -3    3    1   11   -0.000010    0.000000
   -3   -3    3    2   11    0.000000   -0.000000
   -3   -3    3    3   11    0.000000    0.000000
   -3   -3    3    4   11   -0.000018   -0.000000
   -3   -3    3    5   11   -0.000000    0.000000
   -3   -3    3    6   11   -0.000000   -0.000000
   -3   -3    3    7   11    0.000005   -0.000000
   -3   -3    3    8   11   -0.000010   -0.000000
   -3   -3    3    9   11   -0.000000   -0.000000
   -3   -3    3   10   11   -0.000000    0.000000
   -3   -3    3   11   11   -0.000106   -0.000000
   -3   -3    3   12   11    0.000005    0.000000
   -3   -3    3   13   11    0.000000    0.000000
   -3   -3    3   14   11   -0.000010   -0.000000
   -3   -3    3    1   12    0.000021   -0.000000
   -3   -3    3    2   12   -0.000000    0.000000
   -3   -3    3    3   12   -0.000000    0.000000
   -3   -3    3    4   12   -0.000000   -0.000000
   -3   -3    3    5   12    0.000000    0.000000
   -3   -3    3    6   12   -0.000010    0.000000
   -3   -3    3    7   12    0.000005   -0.000000
   -3   -3    3    8   12    0.000000    0.000000
   -3   -3    3    9   12   -0.000010    0.000000
   -3   -3    3   10   12   -0.000000    0.000000
   -3   -3    3   11   12    0.000005   -0.000000
   -3   -3    3   12   12   -0.000106   -0.000000
   -3   -3    3   13   12    0.000000   -0.000000
   -3   -3    3   14   12   -0.000000   -0.000000
   -3   -3    3    1   13   -0.000000   -0.000000
   -3   -3    3    2   13   -0.000009    0.000000
   -3   -3    3    3   13    0.000000    0.000000
   -3   -3    3    4   13   -0.000000   -0.000000
   -3   -3    3    5   13   -0.000000    0.000000
   -3   -3    3    6   13    0.000006   -0.000000
   -3   -3    3    7   13   -0.000010    0.000000
   -3   -3    3    8   13   -0.000000   -0.000000
   -3   -3    3    9   13   -0.000000    0.000000
   -3   -3    3   10   13    0.000002    0.000000
   -3   -3    3   11   13    0.000000   -0.000000
   -3   -3    3   12   13    0.000000    0.000000
   -3   -3    3   13   13   -0.000099   -0.000000
   -3   -3    3   14   13   -0.000000   -0.000000
   -3   -3    3    1   14    0.000000   -0.000000
   -3   -3    3    2   14   -0.000000    0.000000
   -3   -3    3    3   14   -0.000009   -0.000000
   -3   -3    3    4   14   -0.000000    0.000000
   -3   -3    3    5   14   -0.000000    0.000000
   -3   -3    3    6   14    0.000000   -0.000000
   -3   -3    3    7   14    0.000000   -0.000000
   -3   -3    3    8   14    0.000002   -0.000000
   -3   -3    3    9   14    0.000006   -0.000000
   -3   -3    3   10   14   -0.000000   -0.000000
   -3   -3    3   11   14   -0.000010    0.000000
   -3   -3    3   12   14   -0.000000    0.000000
   -3   -3    3   13   14   -0.000000    0.000000
   -3   -3    3   14   14   -0.000099   -0.000000
   -3   -2   -3    1    1    0.000011    0.000000
   -3   -2   -3    2    1   -0.000000    0.000000
   -3   -2   -3    3    1    0.000000    0.000000
   -3   -2   -3    4    1   -0.000004   -0.000000
   -3   -2   -3    5    1    0.000000   -0.000000
   -3   -2   -3    6    1    0.000000   -0.000000
   -3   -2   -3    7    1    0.000004   -0.000000
   -3   -2   -3    8    1    0.000008    0.000000
   -3   -2   -3    9    1   -0.000000    0.000000
   -3   -2   -3   10    1    0.000000    0.000000
   -3   -2   -3   11    1   -0.000001    0.000000
   -3   -2   -3   12    1   -0.000006    0.000000
   -3   -2   -3   13    1   -0.000000   -0.000000
   -3   -2   -3   14    1   -0.000006   -0.000000
   -3   -2   -3    1    2    0.000000   -0.000000
   -3   -2   -3    2    2    0.000021   -0.000000
   -3   -2   -3    3    2   -0.000000    0.000000
   -3   -2   -3    4    2    0.000000    0.000000
   -3   -2   -3    5    2    0.000000    0.000000
   -3   -2   -3    6    2    0.000003    0.000000
   -3   -2   -3    7    2    0.000000    0.000000
   -3   -2   -3    8    2   -0.000000   -0.000000
   -3   -2   -3    9    2   -0.000000   -0.000000
   -3   -2   -3   10    2    0.000000   -0.000000
   -3   -2   -3   11    2   -0.000000   -0.000000
   -3   -2   -3   12    2    0.000000    0.000000
   -3   -2   -3   13    2    0.000003   -0.000000
   -3   -2   -3   14    2    0.000000   -0.000000
   -3   -2   -3    1    3   -0.000000   -0.000000
   -3   -2   -3    2    3   -0.000000    0.000000
   -3   -2   -3    3    3    0.000016    0.000000
   -3   -2   -3    4    3    0.000000    0.000000
   -3   -2   -3    5    3    0.000000   -0.000000
   -3   -2   -3    6    3    0.000004   -0.000000
   -3   -2   -3    7    3    0.000000   -0.000000
   -3   -2   -3    8    3    0.000000    0.000000
   -3   -2   -3    9    3   -0.000013   -0.000000
   -3   -2   -3   10    3   -0.000000   -0.000000
   -3   -2   -3   11    3   -0.000000    0.000000
   -3   -2   -3   12    3    0.000001   -0.000000
   -3   -2   -3   13    3   -0.000000    0.000000
   -3   -2   -3   14    3    0.000000    0.000000
   -3   -2   -3    1    4   -0.000004   -0.000000
   -3   -2   -3    2    4   -0.000000    0.000000
   -3   -2   -3    3    4   -0.000000    0.000000
   -3   -2   -3    4    4    0.000006    0.000000
   -3   -2   -3    5    4    0.000000    0.000000
   -3   -2   -3    6    4   -0.000000   -0.000000
   -3   -2   -3    7    4   -0.000004    0.000000
   -3   -2   -3    8    4   -0.000003   -0.000000
   -3   -2   -3    9    4    0.000000    0.000000
   -3   -2   -3   10    4    0.000000    0.000000
   -3   -2   -3   11    4   -0.000002    0.000000
   -3   -2   -3   12    4    0.000001   -0.000000
   -3   -2   -3   13    4    0.000000   -0.000000
   -3   -2   -3   14    4    0.000006   -0.000000
   -3   -2   -3    1    5    0.000000    0.000000
   -3   -2   -3    2    5    0.000000   -0.000000
   -3   -2   -3    3    5   -0.000000   -0.000000
   -3   -2   -3    4    5    0.000000   -0.000000
   -3   -2   -3    5    5    0.000016    0.000000
   -3   -2   -3    6    5    0.000000    0.000000
   -3   -2   -3    7    5    0.000001    0.000000
   -3   -2   -3    8    5    0.000000   -0.000000
   -3   -2   -3    9    5    0.000000   -0.000000
   -3   -2   -3   10    5   -0.000013   -0.000000
   -3   -2   -3   11    5   -0.000000    0.000000
   -3   -2   -3   12    5   -0.000000    0.000000
   -3   -2   -3   13    5    0.000004   -0.000000
   -3   -2   -3   14    5    0.000000   -0.000000
   -3   -2   -3    1    6    0.000000   -0.000000
   -3   -2   -3    2    6    0.000003    0.000000
   -3   -2   -3    3    6   -0.000004   -0.000000
   -3   -2   -3    4    6    0.000000   -0.000000
   -3   -2   -3    5    6   -0.000000    0.000000
   -3   -2   -3    6    6   -0.000024    0.000000
   -3   -2   -3    7    6    0.000000    0.000000
   -3   -2   -3    8    6   -0.000000   -0.000000
   -3   -2   -3    9    6    0.000005   -0.000000
   -3   -2   -3   10    6    0.000000   -0.000000
   -3   -2   -3   11    6    0.000000    0.000000
   -3   -2   -3   12    6    0.000000    0.000000
   -3   -2   -3   13    6    0.000005   -0.000000
   -3   -2   -3   14    6    0.000008    0.000000
   -3   -2   -3    1    7    0.000004    0.000000
   -3   -2   -3    2    7    0.000000    0.000000
   -3   -2   -3    3    7    0.000000    0.000000
   -3   -2   -3    4    7   -0.000004    0.000000
   -3   -2   -3    5    7   -0.000001    0.000000
   -3   -2   -3    6    7   -0.000000    0.000000
   -3   -2   -3    7    7   -0.000013   -0.000000
   -3   -2   -3    8    7    0.000000   -0.000000
   -3   -2   -3    9    7    0.000000    0.000000
   -3   -2   -3   10    7    0.000000    0.000000
   -3   -2   -3   11    7   -0.000010   -0.000000
   -3   -2   -3   12    7    0.000002    0.000000
   -3   -2   -3   13    7    0.000000    0.000000
   -3   -2   -3   14    7   -0.000009   -0.000000
   -3   -2   -3    1    8   -0.000008   -0.000000
   -3   -2   -3    2    8   -0.000000    0.000000
   -3   -2   -3    3    8   -0.000000   -0.000000
   -3   -2   -3    4    8    0.000003   -0.000000
   -3   -2   -3    5    8    0.000000    0.000000
   -3   -2   -3    6    8   -0.000000    0.000000
   -3   -2   -3    7    8   -0.000000   -0.000000
   -3   -2   -3    8    8   -0.000017    0.000000
   -3   -2   -3    9    8   -0.000000    0.000000
   -3   -2   -3   10    8   -0.000007   -0.000000
   -3   -2   -3   11    8   -0.000003    0.000000
   -3   -2   -3   12    8    0.000009    0.000000
   -3   -2   -3   13    8   -0.000008    0.000000
   -3   -2   -3   14    8    0.000011   -0.000000
   -3   -2   -3    1    9    0.000000   -0.000000
   -3   -2   -3    2    9    0.000000   -0.000000
   -3   -2   -3    3    9    0.000009    0.000000
   -3   -2   -3    4    9    0.000000   -0.000000
   -3   -2   -3    5    9    0.000000    0.000000
   -3   -2   -3    6    9    0.000002   -0.000000
   -3   -2   -3    7    9    0.000000   -0.000000
   -3   -2   -3    8    9    0.000000    0.000000
   -3   -2   -3    9    9   -0.000022   -0.000000
   -3   -2   -3   10    9   -0.000000   -0.000000
   -3   -2   -3   11    9   -0.000000    0.000000
   -3   -2   -3   12    9   -0.000010   -0.000000
   -3   -2   -3   13    9    0.000000    0.000000
   -3   -2   -3   14    9   -0.000006   -0.000000
   -3   -2   -3    1   10    0.000000    0.000000
   -3   -2   -3    2   10   -0.000000    0.000000
   -3   -2   -3    3   10   -0.000000   -0.000000
   -3   -2   -3    4   10    0.000000   -0.000000
   -3   -2   -3    5   10    0.000009   -0.000000
   -3   -2   -3    6   10    0.000000    0.000000
   -3   -2   -3    7   10   -0.000010    0.000000
   -3   -2   -3    8   10   -0.000006    0.000000
   -3   -2   -3    9   10    0.000000    0.000000
   -3   -2   -3   10   10   -0.000022   -0.000000
   -3   -2   -3   11   10   -0.000000    0.000000
   -3   -2   -3   12   10   -0.000000   -0.000000
   -3   -2   -3   13   10    0.000002   -0.000000
   -3   -2   -3   14   10   -0.000000   -0.000000
   -3   -2   -3    1   11    0.000010   -0.000000
   -3   -2   -3    2   11   -0.000000    0.000000
   -3   -2   -3    3   11   -0.000000   -0.000000
   -3   -2   -3    4   11    0.000018    0.000000
   -3   -2   -3    5   11    0.000000   -0.000000
   -3   -2   -3    6   11   -0.000000   -0.000000
   -3   -2   -3    7   11   -0.000005   -0.000000
   -3   -2   -3    8   11   -0.000010   -0.000000
   -3   -2   -3    9   11    0.000000    0.000000
   -3   -2   -3   10   11   -0.000000    0.000000
   -3   -2   -3   11   11   -0.000020   -0.000000
   -3   -2   -3   12   11   -0.000005   -0.000000
   -3   -2   -3   13   11    0.000000   -0.000000
   -3   -2   -3   14   11   -0.000010   -0.000000
   -3   -2   -3    1   12   -0.000006    0.000000
   -3   -2   -3    2   12    0.000000    0.000000
   -3   -2   -3    3   12   -0.000001    0.000000
   -3   -2   -3    4   12    0.000001    0.000000
   -3   -2   -3    5   12    0.000000    0.000000
   -3   -2   -3    6   12    0.000000   -0.000000
   -3   -2   -3    7   12    0.000002    0.000000
   -3   -2   -3    8   12   -0.000009    0.000000
   -3   -2   -3    9   12    0.000000    0.000000
   -3   -2   -3   10   12   -0.000000   -0.000000
   -3   -2   -3   11   12   -0.000009    0.000000
   -3   -2   -3   12   12   -0.000013   -0.000000
   -3   -2   -3   13   12    0.000000    0.000000
   -3   -2   -3   14   12   -0.000000    0.000000
   -3   -2   -3    1   13    0.000000    0.000000
   -3   -2   -3    2   13    0.000003    0.000000
   -3   -2   -3    3   13    0.000000   -0.000000
   -3   -2   -3    4   13   -0.000000    0.000000
   -3   -2   -3    5   13   -0.000004   -0.000000
   -3   -2   -3    6   13    0.000005    0.000000
   -3   -2   -3    7   13    0.000000   -0.000000
   -3   -2   -3    8   13    0.000008   -0.000000
   -3   -2   -3    9   13   -0.000000   -0.000000
   -3   -2   -3   10   13    0.000005   -0.000000
   -3   -2   -3   11   13   -0.000000   -0.000000
   -3   -2   -3   12   13   -0.000000   -0.000000
   -3   -2   -3   13   13   -0.000024    0.000000
   -3   -2   -3   14   13    0.000000   -0.000000
   -3   -2   -3    1   14    0.000006   -0.000000
   -3   -2   -3    2   14    0.000000   -0.000000
   -3   -2   -3    3   14    0.000000   -0.000000
   -3   -2   -3    4   14   -0.000006   -0.000000
   -3   -2   -3    5   14    0.000000   -0.000000
   -3   -2   -3    6   14   -0.000008   -0.000000
   -3   -2   -3    7   14    0.000009    0.000000
   -3   -2   -3    8   14    0.000011   -0.000000
   -3   -2   -3    9   14   -0.000007   -0.000000
   -3   -2   -3   10   14   -0.000000   -0.000000
[...]
    3    3    1    8   14    0.000010   -0.000000
    3    3    1    9   14   -0.000019    0.000000
    3    3    1   10   14   -0.000000   -0.000000
    3    3    1   11   14    0.000003    0.000000
    3    3    1   12   14   -0.000000    0.000000
    3    3    1   13   14   -0.000000    0.000000
    3    3    1   14   14    0.000032   -0.000000
    3    3    2    1    1    0.000004    0.000000
    3    3    2    2    1    0.000000    0.000000
    3    3    2    3    1    0.000000    0.000000
    3    3    2    4    1   -0.000000    0.000000
    3    3    2    5    1    0.000000    0.000000
    3    3    2    6    1    0.000002   -0.000000
    3    3    2    7    1    0.000002    0.000000
    3    3    2    8    1    0.000000   -0.000000
    3    3    2    9    1    0.000002    0.000000
    3    3    2   10    1    0.000000    0.000000
    3    3    2   11    1    0.000002   -0.000000
    3    3    2   12    1   -0.000021   -0.000000
    3    3    2   13    1    0.000000   -0.000000
    3    3    2   14    1    0.000000    0.000000
    3    3    2    1    2   -0.000000    0.000000
    3    3    2    2    2    0.000016   -0.000000
    3    3    2    3    2    0.000000   -0.000000
    3    3    2    4    2   -0.000000   -0.000000
    3    3    2    5    2    0.000000   -0.000000
    3    3    2    6    2    0.000000   -0.000000
    3    3    2    7    2   -0.000001    0.000000
    3    3    2    8    2   -0.000000   -0.000000
    3    3    2    9    2   -0.000000   -0.000000
    3    3    2   10    2   -0.000004    0.000000
    3    3    2   11    2    0.000000    0.000000
    3    3    2   12    2    0.000000    0.000000
    3    3    2   13    2    0.000009    0.000000
    3    3    2   14    2    0.000000    0.000000
    3    3    2    1    3    0.000000   -0.000000
    3    3    2    2    3   -0.000000    0.000000
    3    3    2    3    3    0.000016   -0.000000
    3    3    2    4    3   -0.000000   -0.000000
    3    3    2    5    3   -0.000000   -0.000000
    3    3    2    6    3   -0.000000    0.000000
    3    3    2    7    3    0.000000    0.000000
    3    3    2    8    3   -0.000004    0.000000
    3    3    2    9    3    0.000000    0.000000
    3    3    2   10    3    0.000000    0.000000
    3    3    2   11    3   -0.000001   -0.000000
    3    3    2   12    3    0.000000    0.000000
    3    3    2   13    3   -0.000000    0.000000
    3    3    2   14    3    0.000009   -0.000000
    3    3    2    1    4    0.000000   -0.000000
    3    3    2    2    4    0.000000   -0.000000
    3    3    2    3    4   -0.000000    0.000000
    3    3    2    4    4    0.000013    0.000000
    3    3    2    5    4   -0.000000   -0.000000
    3    3    2    6    4    0.000008   -0.000000
    3    3    2    7    4   -0.000006   -0.000000
    3    3    2    8    4   -0.000000    0.000000
    3    3    2    9    4   -0.000008   -0.000000
    3    3    2   10    4    0.000000   -0.000000
    3    3    2   11    4    0.000006   -0.000000
    3    3    2   12    4    0.000000   -0.000000
    3    3    2   13    4   -0.000000    0.000000
    3    3    2   14    4    0.000000    0.000000
    3    3    2    1    5    0.000000   -0.000000
    3    3    2    2    5   -0.000000    0.000000
    3    3    2    3    5    0.000000    0.000000
    3    3    2    4    5    0.000000   -0.000000
    3    3    2    5    5    0.000021    0.000000
    3    3    2    6    5    0.000000   -0.000000
    3    3    2    7    5   -0.000000    0.000000
    3    3    2    8    5    0.000003   -0.000000
    3    3    2    9    5    0.000000   -0.000000
    3    3    2   10    5    0.000003   -0.000000
    3    3    2   11    5   -0.000000    0.000000
    3    3    2   12    5   -0.000000    0.000000
    3    3    2   13    5    0.000000    0.000000
    3    3    2   14    5    0.000000    0.000000
    3    3    2    1    6   -0.000002    0.000000
    3    3    2    2    6    0.000000    0.000000
    3    3    2    3    6   -0.000000   -0.000000
    3    3    2    4    6   -0.000008   -0.000000
    3    3    2    5    6    0.000000    0.000000
    3    3    2    6    6   -0.000017    0.000000
    3    3    2    7    6    0.000000    0.000000
    3    3    2    8    6   -0.000000    0.000000
    3    3    2    9    6    0.000011   -0.000000
    3    3    2   10    6    0.000008    0.000000
    3    3    2   11    6   -0.000009   -0.000000
    3    3    2   12    6   -0.000010   -0.000000
    3    3    2   13    6   -0.000006   -0.000000
    3    3    2   14    6   -0.000000   -0.000000
    3    3    2    1    7    0.000002   -0.000000
    3    3    2    2    7    0.000001    0.000000
    3    3    2    3    7    0.000000   -0.000000
    3    3    2    4    7   -0.000006   -0.000000
    3    3    2    5    7   -0.000000    0.000000
    3    3    2    6    7   -0.000000   -0.000000
    3    3    2    7    7   -0.000013    0.000000
    3    3    2    8    7    0.000000    0.000000
    3    3    2    9    7    0.000009    0.000000
    3    3    2   10    7    0.000000    0.000000
    3    3    2   11    7    0.000002    0.000000
    3    3    2   12    7   -0.000005   -0.000000
    3    3    2   13    7   -0.000010   -0.000000
    3    3    2   14    7   -0.000000   -0.000000
    3    3    2    1    8   -0.000000   -0.000000
    3    3    2    2    8    0.000000   -0.000000
    3    3    2    3    8    0.000004    0.000000
    3    3    2    4    8    0.000000    0.000000
    3    3    2    5    8    0.000003   -0.000000
    3    3    2    6    8    0.000000   -0.000000
    3    3    2    7    8   -0.000000    0.000000
    3    3    2    8    8   -0.000024   -0.000000
    3    3    2    9    8   -0.000008   -0.000000
    3    3    2   10    8    0.000005    0.000000
    3    3    2   11    8    0.000000   -0.000000
    3    3    2   12    8    0.000000    0.000000
    3    3    2   13    8   -0.000000   -0.000000
    3    3    2   14    8    0.000002    0.000000
    3    3    2    1    9   -0.000002   -0.000000
    3    3    2    2    9   -0.000000   -0.000000
    3    3    2    3    9    0.000000   -0.000000
    3    3    2    4    9    0.000008   -0.000000
    3    3    2    5    9    0.000000    0.000000
    3    3    2    6    9    0.000011   -0.000000
    3    3    2    7    9   -0.000009    0.000000
    3    3    2    8    9    0.000008    0.000000
    3    3    2    9    9   -0.000017   -0.000000
    3    3    2   10    9    0.000000    0.000000
    3    3    2   11    9   -0.000000    0.000000
    3    3    2   12    9   -0.000010   -0.000000
    3    3    2   13    9    0.000000    0.000000
    3    3    2   14    9   -0.000006   -0.000000
    3    3    2    1   10   -0.000000   -0.000000
    3    3    2    2   10    0.000004   -0.000000
    3    3    2    3   10   -0.000000    0.000000
    3    3    2    4   10    0.000000    0.000000
    3    3    2    5   10    0.000003   -0.000000
    3    3    2    6   10   -0.000008   -0.000000
    3    3    2    7   10    0.000000   -0.000000
    3    3    2    8   10    0.000005   -0.000000
    3    3    2    9   10   -0.000000    0.000000
    3    3    2   10   10   -0.000024   -0.000000
    3    3    2   11   10   -0.000000   -0.000000
    3    3    2   12   10    0.000000    0.000000
    3    3    2   13   10    0.000002   -0.000000
    3    3    2   14   10    0.000000   -0.000000
    3    3    2    1   11    0.000002    0.000000
    3    3    2    2   11   -0.000000   -0.000000
    3    3    2    3   11    0.000001   -0.000000
    3    3    2    4   11    0.000006   -0.000000
    3    3    2    5   11   -0.000000   -0.000000
    3    3    2    6   11    0.000009   -0.000000
    3    3    2    7   11    0.000002    0.000000
    3    3    2    8   11    0.000000   -0.000000
    3    3    2    9   11   -0.000000   -0.000000
    3    3    2   10   11    0.000000    0.000000
    3    3    2   11   11   -0.000013   -0.000000
    3    3    2   12   11   -0.000005   -0.000000
    3    3    2   13   11   -0.000000   -0.000000
    3    3    2   14   11   -0.000010   -0.000000
    3    3    2    1   12    0.000002   -0.000000
    3    3    2    2   12    0.000000   -0.000000
    3    3    2    3   12    0.000000    0.000000
    3    3    2    4   12   -0.000000   -0.000000
    3    3    2    5   12    0.000000    0.000000
    3    3    2    6   12   -0.000003   -0.000000
    3    3    2    7   12   -0.000009   -0.000000
    3    3    2    8   12   -0.000000    0.000000
    3    3    2    9   12   -0.000003    0.000000
    3    3    2   10   12    0.000000    0.000000
    3    3    2   11   12   -0.000009    0.000000
    3    3    2   12   12   -0.000020    0.000000
    3    3    2   13   12   -0.000000    0.000000
    3    3    2   14   12    0.000000    0.000000
    3    3    2    1   13    0.000000    0.000000
    3    3    2    2   13   -0.000013    0.000000
    3    3    2    3   13    0.000000    0.000000
    3    3    2    4   13   -0.000000    0.000000
    3    3    2    5   13    0.000000    0.000000
    3    3    2    6   13   -0.000007    0.000000
    3    3    2    7   13    0.000000   -0.000000
    3    3    2    8   13   -0.000000    0.000000
    3    3    2    9   13    0.000000   -0.000000
    3    3    2   10   13    0.000005   -0.000000
    3    3    2   11   13    0.000000    0.000000
    3    3    2   12   13   -0.000000    0.000000
    3    3    2   13   13   -0.000022   -0.000000
    3    3    2   14   13    0.000000    0.000000
    3    3    2    1   14   -0.000000    0.000000
    3    3    2    2   14    0.000000    0.000000
    3    3    2    3   14   -0.000013    0.000000
    3    3    2    4   14   -0.000000    0.000000
    3    3    2    5   14   -0.000000    0.000000
    3    3    2    6   14    0.000000    0.000000
    3    3    2    7   14   -0.000000   -0.000000
    3    3    2    8   14    0.000005    0.000000
    3    3    2    9   14   -0.000007    0.000000
    3    3    2   10   14   -0.000000    0.000000
    3    3    2   11   14    0.000000    0.000000
    3    3    2   12   14    0.000000   -0.000000
    3    3    2   13   14    0.000000   -0.000000
    3    3    2   14   14   -0.000022    0.000000
    3    3    3    1    1   -0.000005   -0.000000
    3    3    3    2    1    0.000000   -0.000000
    3    3    3    3    1   -0.000000   -0.000000
    3    3    3    4    1    0.000000   -0.000000
    3    3    3    5    1    0.000000    0.000000
    3    3    3    6    1   -0.000000    0.000000
    3    3    3    7    1   -0.000010   -0.000000
    3    3    3    8    1    0.000000    0.000000
    3    3    3    9    1   -0.000000   -0.000000
    3    3    3   10    1   -0.000000    0.000000
    3    3    3   11    1   -0.000010   -0.000000
    3    3    3   12    1    0.000021    0.000000
    3    3    3   13    1   -0.000000    0.000000
    3    3    3   14    1    0.000000    0.000000
    3    3    3    1    2    0.000000    0.000000
    3    3    3    2    2    0.000048   -0.000000
    3    3    3    3    2    0.000000   -0.000000
    3    3    3    4    2   -0.000000   -0.000000
    3    3    3    5    2   -0.000000    0.000000
    3    3    3    6    2   -0.000009   -0.000000
    3    3    3    7    2    0.000000   -0.000000
    3    3    3    8    2    0.000000   -0.000000
    3    3    3    9    2   -0.000000   -0.000000
    3    3    3   10    2    0.000000   -0.000000
    3    3    3   11    2    0.000000    0.000000
    3    3    3   12    2   -0.000000   -0.000000
    3    3    3   13    2   -0.000009   -0.000000
    3    3    3   14    2   -0.000000   -0.000000
    3    3    3    1    3   -0.000000    0.000000
    3    3    3    2    3    0.000000    0.000000
    3    3    3    3    3    0.000048   -0.000000
    3    3    3    4    3    0.000000    0.000000
    3    3    3    5    3    0.000000    0.000000
    3    3    3    6    3    0.000000   -0.000000
    3    3    3    7    3   -0.000000    0.000000
    3    3    3    8    3    0.000000   -0.000000
    3    3    3    9    3   -0.000009    0.000000
    3    3    3   10    3    0.000000   -0.000000
    3    3    3   11    3    0.000000   -0.000000
    3    3    3   12    3   -0.000000   -0.000000
    3    3    3   13    3    0.000000   -0.000000
    3    3    3   14    3   -0.000009    0.000000
    3    3    3    1    4    0.000000    0.000000
    3    3    3    2    4   -0.000000    0.000000
    3    3    3    3    4    0.000000   -0.000000
    3    3    3    4    4   -0.000005   -0.000000
    3    3    3    5    4   -0.000000    0.000000
    3    3    3    6    4    0.000000    0.000000
    3    3    3    7    4    0.000018   -0.000000
    3    3    3    8    4   -0.000000   -0.000000
    3    3    3    9    4   -0.000000   -0.000000
    3    3    3   10    4   -0.000000   -0.000000
    3    3    3   11    4   -0.000018    0.000000
    3    3    3   12    4   -0.000000    0.000000
    3    3    3   13    4   -0.000000    0.000000
    3    3    3   14    4   -0.000000   -0.000000
    3    3    3    1    5    0.000000   -0.000000
    3    3    3    2    5   -0.000000   -0.000000
    3    3    3    3    5    0.000000   -0.000000
    3    3    3    4    5   -0.000000   -0.000000
    3    3    3    5    5    0.000048   -0.000000
    3    3    3    6    5    0.000000   -0.000000
    3    3    3    7    5   -0.000000    0.000000
    3    3    3    8    5   -0.000009   -0.000000
    3    3    3    9    5   -0.000000    0.000000
    3    3    3   10    5   -0.000009   -0.000000
    3    3    3   11    5   -0.000000   -0.000000
    3    3    3   12    5    0.000000   -0.000000
    3    3    3   13    5   -0.000000   -0.000000
    3    3    3   14    5   -0.000000   -0.000000
    3    3    3    1    6   -0.000000   -0.000000
    3    3    3    2    6   -0.000009    0.000000
    3    3    3    3    6    0.000000    0.000000
    3    3    3    4    6    0.000000   -0.000000
    3    3    3    5    6    0.000000    0.000000
    3    3    3    6    6   -0.000099   -0.000000
    3    3    3    7    6   -0.000000   -0.000000
    3    3    3    8    6    0.000000    0.000000
    3    3    3    9    6    0.000002    0.000000
    3    3    3   10    6    0.000000   -0.000000
    3    3    3   11    6   -0.000000    0.000000
    3    3    3   12    6   -0.000010   -0.000000
    3    3    3   13    6    0.000006    0.000000
    3    3    3   14    6    0.000000    0.000000
    3    3    3    1    7   -0.000010    0.000000
    3    3    3    2    7    0.000000    0.000000
    3    3    3    3    7   -0.000000   -0.000000
    3    3    3    4    7    0.000018    0.000000
    3    3    3    5    7   -0.000000   -0.000000
    3    3    3    6    7   -0.000000    0.000000
    3    3    3    7    7   -0.000106   -0.000000
    3    3    3    8    7    0.000000    0.000000
    3    3    3    9    7   -0.000000   -0.000000
    3    3    3   10    7   -0.000010   -0.000000
    3    3    3   11    7    0.000005    0.000000
    3    3    3   12    7    0.000005    0.000000
    3    3    3   13    7   -0.000010   -0.000000
    3    3    3   14    7    0.000000    0.000000
    3    3    3    1    8    0.000000   -0.000000
    3    3    3    2    8    0.000000    0.000000
    3    3    3    3    8    0.000000    0.000000
    3    3    3    4    8   -0.000000    0.000000
    3    3    3    5    8   -0.000009    0.000000
    3    3    3    6    8    0.000000   -0.000000
    3    3    3    7    8    0.000000   -0.000000
    3    3    3    8    8   -0.000099   -0.000000
    3    3    3    9    8    0.000000    0.000000
    3    3    3   10    8    0.000006    0.000000
    3    3    3   11    8   -0.000010    0.000000
    3    3    3   12    8    0.000000   -0.000000
    3    3    3   13    8   -0.000000    0.000000
    3    3    3   14    8    0.000002    0.000000
    3    3    3    1    9   -0.000000    0.000000
    3    3    3    2    9   -0.000000    0.000000
    3    3    3    3    9   -0.000009   -0.000000
    3    3    3    4    9   -0.000000    0.000000
    3    3    3    5    9   -0.000000   -0.000000
    3    3    3    6    9    0.000002   -0.000000
    3    3    3    7    9   -0.000000    0.000000
    3    3    3    8    9    0.000000   -0.000000
    3    3    3    9    9   -0.000099   -0.000000
    3    3    3   10    9    0.000000   -0.000000
    3    3    3   11    9   -0.000000    0.000000
    3    3    3   12    9   -0.000010   -0.000000
    3    3    3   13    9   -0.000000   -0.000000
    3    3    3   14    9    0.000006    0.000000
    3    3    3    1   10   -0.000000   -0.000000
    3    3    3    2   10    0.000000    0.000000
    3    3    3    3   10    0.000000    0.000000
    3    3    3    4   10   -0.000000    0.000000
    3    3    3    5   10   -0.000009    0.000000
    3    3    3    6   10    0.000000    0.000000
    3    3    3    7   10   -0.000010    0.000000
    3    3    3    8   10    0.000006   -0.000000
    3    3    3    9   10    0.000000    0.000000
    3    3    3   10   10   -0.000099   -0.000000
    3    3    3   11   10   -0.000000   -0.000000
    3    3    3   12   10   -0.000000   -0.000000
    3    3    3   13   10    0.000002   -0.000000
    3    3    3   14   10   -0.000000    0.000000
    3    3    3    1   11   -0.000010    0.000000
    3    3    3    2   11    0.000000   -0.000000
    3    3    3    3   11    0.000000    0.000000
    3    3    3    4   11   -0.000018   -0.000000
    3    3    3    5   11   -0.000000    0.000000
    3    3    3    6   11   -0.000000   -0.000000
    3    3    3    7   11    0.000005   -0.000000
    3    3    3    8   11   -0.000010   -0.000000
    3    3    3    9   11   -0.000000   -0.000000
    3    3    3   10   11   -0.000000    0.000000
    3    3    3   11   11   -0.000106   -0.000000
    3    3    3   12   11    0.000005    0.000000
    3    3    3   13   11    0.000000    0.000000
    3    3    3   14   11   -0.000010   -0.000000
    3    3    3    1   12    0.000021   -0.000000
    3    3    3    2   12   -0.000000    0.000000
    3    3    3    3   12   -0.000000    0.000000
    3    3    3    4   12   -0.000000   -0.000000
    3    3    3    5   12    0.000000    0.000000
    3    3    3    6   12   -0.000010    0.000000
    3    3    3    7   12    0.000005   -0.000000
    3    3    3    8   12    0.000000    0.000000
    3    3    3    9   12   -0.000010    0.000000
    3    3    3   10   12   -0.000000    0.000000
    3    3    3   11   12    0.000005   -0.000000
    3    3    3   12   12   -0.000106   -0.000000
    3    3    3   13   12    0.000000   -0.000000
    3    3    3   14   12   -0.000000   -0.000000
    3    3    3    1   13   -0.000000   -0.000000
    3    3    3    2   13   -0.000009    0.000000
    3    3    3    3   13    0.000000    0.000000
    3    3    3    4   13   -0.000000   -0.000000
    3    3    3    5   13   -0.000000    0.000000
    3    3    3    6   13    0.000006   -0.000000
    3    3    3    7   13   -0.000010    0.000000
    3    3    3    8   13   -0.000000   -0.000000
    3    3    3    9   13   -0.000000    0.000000
    3    3    3   10   13    0.000002    0.000000
    3    3    3   11   13    0.000000   -0.000000
    3    3    3   12   13    0.000000    0.000000
    3    3    3   13   13   -0.000099   -0.000000
    3    3    3   14   13   -0.000000   -0.000000
    3    3    3    1   14    0.000000   -0.000000
    3    3    3    2   14   -0.000000    0.000000
    3    3    3    3   14   -0.000009   -0.000000
    3    3    3    4   14   -0.000000    0.000000
    3    3    3    5   14   -0.000000    0.000000
    3    3    3    6   14    0.000000   -0.000000
    3    3    3    7   14    0.000000   -0.000000
    3    3    3    8   14    0.000002   -0.000000
    3    3    3    9   14    0.000006   -0.000000
    3    3    3   10   14   -0.000000   -0.000000
    3    3    3   11   14   -0.000010    0.000000
    3    3    3   12   14   -0.000000    0.000000
    3    3    3   13   14   -0.000000    0.000000
    3    3    3   14   14   -0.000099   -0.000000
