
             +---------------------------------------------------+
             |                                                   |
             |                   WANNIER90                       |
             |                                                   |
             +---------------------------------------------------+
             |                                                   |
             |        Welcome to the Maximally-Localized         |
             |        Generalized Wannier Functions code         |
             |            http://www.wannier.org                 |
             |                                                   |
             |                                                   |
             |  Wannier90 Developer Group:                       |
             |    Giovanni Pizzi    (EPFL)                       |
             |    Valerio Vitale    (Cambridge)                  |
             |    David Vanderbilt  (Rutgers University)         |
             |    Nicola Marzari    (EPFL)                       |
             |    Ivo Souza         (Universidad del Pais Vasco) |
             |    Arash A. Mostofi  (Imperial College London)    |
             |    Jonathan R. Yates (University of Oxford)       |
             |                                                   |
             |  For the full list of Wannier90 3.x authors,      |
             |  please check the code documentation and the      |
             |  README on the GitHub page of the code            |
             |                                                   |
             |                                                   |
             |  Please cite                                      |
             |                                                   |
             |  [ref] "Wannier90 as a community code:            |
             |        new features and applications",            |
             |        G. Pizzi et al., J. Phys. Cond. Matt. 32,  |
             |        165902 (2020).                             |
             |        http://doi.org/10.1088/1361-648X/ab51ff    |
             |                                                   |
             |  in any publications arising from the use of      |
             |  this code. For the method please cite            |
             |                                                   |
             |  [ref] "Maximally Localized Generalised Wannier   |
             |         Functions for Composite Energy Bands"     |
             |         N. Marzari and D. Vanderbilt              |
             |         Phys. Rev. B 56 12847 (1997)              |
             |                                                   |
             |  [ref] "Maximally Localized Wannier Functions     |
             |         for Entangled Energy Bands"               |
             |         I. Souza, N. Marzari and D. Vanderbilt    |
             |         Phys. Rev. B 65 035109 (2001)             |
             |                                                   |
             |                                                   |
             | Copyright (c) 1996-2020                           |
             |        The Wannier90 Developer Group and          |
             |        individual contributors                    |
             |                                                   |
             |      Release: 3.1.0        5th March    2020      |
             |                                                   |
             | This program is free software; you can            |
             | redistribute it and/or modify it under the terms  |
             | of the GNU General Public License as published by |
             | the Free Software Foundation; either version 2 of |
             | the License, or (at your option) any later version|
             |                                                   |
             | This program is distributed in the hope that it   |
             | will be useful, but WITHOUT ANY WARRANTY; without |
             | even the implied warranty of MERCHANTABILITY or   |
             | FITNESS FOR A PARTICULAR PURPOSE. See the GNU     |
             | General Public License for more details.          |
             |                                                   |
             | You should have received a copy of the GNU General|
             | Public License along with this program; if not,   |
             | write to the Free Software Foundation, Inc.,      |
             | 675 Mass Ave, Cambridge, MA 02139, USA.           |
             |                                                   |
             +---------------------------------------------------+
             |    Execution started on 30Oct2020 at 11:17:32     |
             +---------------------------------------------------+
 
 ******************************************************************************
 * -> Using CODATA 2006 constant values                                       *
 *    (http://physics.nist.gov/cuu/Constants/index.html)                      *
 * -> Using Bohr value from CODATA                                            *
 ******************************************************************************
 

 Running in serial (with parallel executable)

                                    ------
                                    SYSTEM
                                    ------

                              Lattice Vectors (Ang)
                    a_1     3.810000   0.000000   0.000000
                    a_2     0.000000   3.810000   0.000000
                    a_3     0.000000   0.000000   3.810000

                   Unit Cell Volume:      55.30634  (Ang^3)

                        Reciprocal-Space Vectors (Ang^-1)
                    b_1     1.649130   0.000000   0.000000
                    b_2     0.000000   1.649130   0.000000
                    b_3     0.000000   0.000000   1.649130
  
 *----------------------------------------------------------------------------*
 |   Site       Fractional Coordinate          Cartesian Coordinate (Ang)     |
 +----------------------------------------------------------------------------+
 | Sr   1   0.00000   0.00000   0.00000   |    0.00000   0.00000   0.00000    |
 | Mn   1   0.50000   0.50000   0.50000   |    1.90500   1.90500   1.90500    |
 | O    1   0.00000   0.50000   0.50000   |    0.00000   1.90500   1.90500    |
 | O    2   0.50000   0.00000   0.50000   |    1.90500   0.00000   1.90500    |
 | O    3   0.50000   0.50000   0.00000   |    1.90500   1.90500   0.00000    |
 *----------------------------------------------------------------------------*
                                -----------
                                PROJECTIONS
                                -----------
  
 +----------------------------------------------------------------------------+
 |     Frac. Coord.   l mr  r        z-axis               x-axis          Z/a |
 +----------------------------------------------------------------------------+
 |  0.50  0.50  0.50  2  1  1  0.000  0.000  1.000  1.000  0.000  0.000   1.0 |
 |  0.50  0.50  0.50  2  2  1  0.000  0.000  1.000  1.000  0.000  0.000   1.0 |
 |  0.50  0.50  0.50  2  3  1  0.000  0.000  1.000  1.000  0.000  0.000   1.0 |
 |  0.50  0.50  0.50  2  4  1  0.000  0.000  1.000  1.000  0.000  0.000   1.0 |
 |  0.50  0.50  0.50  2  5  1  0.000  0.000  1.000  1.000  0.000  0.000   1.0 |
 |  0.00  0.50  0.50  1  1  1  0.000  0.000  1.000  1.000  0.000  0.000   1.0 |
 |  0.00  0.50  0.50  1  2  1  0.000  0.000  1.000  1.000  0.000  0.000   1.0 |
 |  0.00  0.50  0.50  1  3  1  0.000  0.000  1.000  1.000  0.000  0.000   1.0 |
 |  0.50  0.00  0.50  1  1  1  0.000  0.000  1.000  1.000  0.000  0.000   1.0 |
 |  0.50  0.00  0.50  1  2  1  0.000  0.000  1.000  1.000  0.000  0.000   1.0 |
 |  0.50  0.00  0.50  1  3  1  0.000  0.000  1.000  1.000  0.000  0.000   1.0 |
 |  0.50  0.50  0.00  1  1  1  0.000  0.000  1.000  1.000  0.000  0.000   1.0 |
 |  0.50  0.50  0.00  1  2  1  0.000  0.000  1.000  1.000  0.000  0.000   1.0 |
 |  0.50  0.50  0.00  1  3  1  0.000  0.000  1.000  1.000  0.000  0.000   1.0 |
 +----------------------------------------------------------------------------+
  
                                ------------
                                K-POINT GRID
                                ------------
  
             Grid size =  6 x  6 x  6      Total points =  216
  
 *----------------------------------------------------------------------------*
 | k-point      Fractional Coordinate        Cartesian Coordinate (Ang^-1)    |
 +----------------------------------------------------------------------------+
 |     1    0.00000   0.00000   0.00000   |    0.00000   0.00000   0.00000    |
 |     2    0.00000   0.00000   0.16667   |    0.00000   0.00000   0.27486    |
 |     3    0.00000   0.00000   0.33333   |    0.00000   0.00000   0.54971    |
 |     4    0.00000   0.00000   0.50000   |    0.00000   0.00000   0.82457    |
 |     5    0.00000   0.00000   0.66667   |    0.00000   0.00000   1.09942    |
 |     6    0.00000   0.00000   0.83333   |    0.00000   0.00000   1.37428    |
 |     7    0.00000   0.16667   0.00000   |    0.00000   0.27486   0.00000    |
 |     8    0.00000   0.16667   0.16667   |    0.00000   0.27486   0.27486    |
 |     9    0.00000   0.16667   0.33333   |    0.00000   0.27486   0.54971    |
 |    10    0.00000   0.16667   0.50000   |    0.00000   0.27486   0.82457    |
 |    11    0.00000   0.16667   0.66667   |    0.00000   0.27486   1.09942    |
 |    12    0.00000   0.16667   0.83333   |    0.00000   0.27486   1.37428    |
 |    13    0.00000   0.33333   0.00000   |    0.00000   0.54971   0.00000    |
 |    14    0.00000   0.33333   0.16667   |    0.00000   0.54971   0.27486    |
 |    15    0.00000   0.33333   0.33333   |    0.00000   0.54971   0.54971    |
 |    16    0.00000   0.33333   0.50000   |    0.00000   0.54971   0.82457    |
 |    17    0.00000   0.33333   0.66667   |    0.00000   0.54971   1.09942    |
 |    18    0.00000   0.33333   0.83333   |    0.00000   0.54971   1.37428    |
 |    19    0.00000   0.50000   0.00000   |    0.00000   0.82457   0.00000    |
 |    20    0.00000   0.50000   0.16667   |    0.00000   0.82457   0.27486    |
 |    21    0.00000   0.50000   0.33333   |    0.00000   0.82457   0.54971    |
 |    22    0.00000   0.50000   0.50000   |    0.00000   0.82457   0.82457    |
 |    23    0.00000   0.50000   0.66667   |    0.00000   0.82457   1.09942    |
 |    24    0.00000   0.50000   0.83333   |    0.00000   0.82457   1.37428    |
 |    25    0.00000   0.66667   0.00000   |    0.00000   1.09942   0.00000    |
 |    26    0.00000   0.66667   0.16667   |    0.00000   1.09942   0.27486    |
 |    27    0.00000   0.66667   0.33333   |    0.00000   1.09942   0.54971    |
 |    28    0.00000   0.66667   0.50000   |    0.00000   1.09942   0.82457    |
 |    29    0.00000   0.66667   0.66667   |    0.00000   1.09942   1.09942    |
 |    30    0.00000   0.66667   0.83333   |    0.00000   1.09942   1.37428    |
 |    31    0.00000   0.83333   0.00000   |    0.00000   1.37428   0.00000    |
 |    32    0.00000   0.83333   0.16667   |    0.00000   1.37428   0.27486    |
 |    33    0.00000   0.83333   0.33333   |    0.00000   1.37428   0.54971    |
 |    34    0.00000   0.83333   0.50000   |    0.00000   1.37428   0.82457    |
 |    35    0.00000   0.83333   0.66667   |    0.00000   1.37428   1.09942    |
 |    36    0.00000   0.83333   0.83333   |    0.00000   1.37428   1.37428    |
 |    37    0.16667   0.00000   0.00000   |    0.27486   0.00000   0.00000    |
 |    38    0.16667   0.00000   0.16667   |    0.27486   0.00000   0.27486    |
 |    39    0.16667   0.00000   0.33333   |    0.27486   0.00000   0.54971    |
 |    40    0.16667   0.00000   0.50000   |    0.27486   0.00000   0.82457    |
 |    41    0.16667   0.00000   0.66667   |    0.27486   0.00000   1.09942    |
 |    42    0.16667   0.00000   0.83333   |    0.27486   0.00000   1.37428    |
 |    43    0.16667   0.16667   0.00000   |    0.27486   0.27486   0.00000    |
 |    44    0.16667   0.16667   0.16667   |    0.27486   0.27486   0.27486    |
 |    45    0.16667   0.16667   0.33333   |    0.27486   0.27486   0.54971    |
 |    46    0.16667   0.16667   0.50000   |    0.27486   0.27486   0.82457    |
 |    47    0.16667   0.16667   0.66667   |    0.27486   0.27486   1.09942    |
 |    48    0.16667   0.16667   0.83333   |    0.27486   0.27486   1.37428    |
 |    49    0.16667   0.33333   0.00000   |    0.27486   0.54971   0.00000    |
 |    50    0.16667   0.33333   0.16667   |    0.27486   0.54971   0.27486    |
 |    51    0.16667   0.33333   0.33333   |    0.27486   0.54971   0.54971    |
 |    52    0.16667   0.33333   0.50000   |    0.27486   0.54971   0.82457    |
 |    53    0.16667   0.33333   0.66667   |    0.27486   0.54971   1.09942    |
 |    54    0.16667   0.33333   0.83333   |    0.27486   0.54971   1.37428    |
 |    55    0.16667   0.50000   0.00000   |    0.27486   0.82457   0.00000    |
 |    56    0.16667   0.50000   0.16667   |    0.27486   0.82457   0.27486    |
 |    57    0.16667   0.50000   0.33333   |    0.27486   0.82457   0.54971    |
 |    58    0.16667   0.50000   0.50000   |    0.27486   0.82457   0.82457    |
 |    59    0.16667   0.50000   0.66667   |    0.27486   0.82457   1.09942    |
 |    60    0.16667   0.50000   0.83333   |    0.27486   0.82457   1.37428    |
 |    61    0.16667   0.66667   0.00000   |    0.27486   1.09942   0.00000    |
 |    62    0.16667   0.66667   0.16667   |    0.27486   1.09942   0.27486    |
 |    63    0.16667   0.66667   0.33333   |    0.27486   1.09942   0.54971    |
 |    64    0.16667   0.66667   0.50000   |    0.27486   1.09942   0.82457    |
 |    65    0.16667   0.66667   0.66667   |    0.27486   1.09942   1.09942    |
 |    66    0.16667   0.66667   0.83333   |    0.27486   1.09942   1.37428    |
 |    67    0.16667   0.83333   0.00000   |    0.27486   1.37428   0.00000    |
 |    68    0.16667   0.83333   0.16667   |    0.27486   1.37428   0.27486    |
 |    69    0.16667   0.83333   0.33333   |    0.27486   1.37428   0.54971    |
 |    70    0.16667   0.83333   0.50000   |    0.27486   1.37428   0.82457    |
 |    71    0.16667   0.83333   0.66667   |    0.27486   1.37428   1.09942    |
 |    72    0.16667   0.83333   0.83333   |    0.27486   1.37428   1.37428    |
 |    73    0.33333   0.00000   0.00000   |    0.54971   0.00000   0.00000    |
 |    74    0.33333   0.00000   0.16667   |    0.54971   0.00000   0.27486    |
 |    75    0.33333   0.00000   0.33333   |    0.54971   0.00000   0.54971    |
 |    76    0.33333   0.00000   0.50000   |    0.54971   0.00000   0.82457    |
 |    77    0.33333   0.00000   0.66667   |    0.54971   0.00000   1.09942    |
 |    78    0.33333   0.00000   0.83333   |    0.54971   0.00000   1.37428    |
 |    79    0.33333   0.16667   0.00000   |    0.54971   0.27486   0.00000    |
 |    80    0.33333   0.16667   0.16667   |    0.54971   0.27486   0.27486    |
 |    81    0.33333   0.16667   0.33333   |    0.54971   0.27486   0.54971    |
 |    82    0.33333   0.16667   0.50000   |    0.54971   0.27486   0.82457    |
 |    83    0.33333   0.16667   0.66667   |    0.54971   0.27486   1.09942    |
 |    84    0.33333   0.16667   0.83333   |    0.54971   0.27486   1.37428    |
 |    85    0.33333   0.33333   0.00000   |    0.54971   0.54971   0.00000    |
 |    86    0.33333   0.33333   0.16667   |    0.54971   0.54971   0.27486    |
 |    87    0.33333   0.33333   0.33333   |    0.54971   0.54971   0.54971    |
 |    88    0.33333   0.33333   0.50000   |    0.54971   0.54971   0.82457    |
 |    89    0.33333   0.33333   0.66667   |    0.54971   0.54971   1.09942    |
 |    90    0.33333   0.33333   0.83333   |    0.54971   0.54971   1.37428    |
 |    91    0.33333   0.50000   0.00000   |    0.54971   0.82457   0.00000    |
 |    92    0.33333   0.50000   0.16667   |    0.54971   0.82457   0.27486    |
 |    93    0.33333   0.50000   0.33333   |    0.54971   0.82457   0.54971    |
 |    94    0.33333   0.50000   0.50000   |    0.54971   0.82457   0.82457    |
 |    95    0.33333   0.50000   0.66667   |    0.54971   0.82457   1.09942    |
 |    96    0.33333   0.50000   0.83333   |    0.54971   0.82457   1.37428    |
 |    97    0.33333   0.66667   0.00000   |    0.54971   1.09942   0.00000    |
 |    98    0.33333   0.66667   0.16667   |    0.54971   1.09942   0.27486    |
 |    99    0.33333   0.66667   0.33333   |    0.54971   1.09942   0.54971    |
 |   100    0.33333   0.66667   0.50000   |    0.54971   1.09942   0.82457    |
 |   101    0.33333   0.66667   0.66667   |    0.54971   1.09942   1.09942    |
 |   102    0.33333   0.66667   0.83333   |    0.54971   1.09942   1.37428    |
 |   103    0.33333   0.83333   0.00000   |    0.54971   1.37428   0.00000    |
 |   104    0.33333   0.83333   0.16667   |    0.54971   1.37428   0.27486    |
 |   105    0.33333   0.83333   0.33333   |    0.54971   1.37428   0.54971    |
 |   106    0.33333   0.83333   0.50000   |    0.54971   1.37428   0.82457    |
 |   107    0.33333   0.83333   0.66667   |    0.54971   1.37428   1.09942    |
 |   108    0.33333   0.83333   0.83333   |    0.54971   1.37428   1.37428    |
 |   109    0.50000   0.00000   0.00000   |    0.82457   0.00000   0.00000    |
 |   110    0.50000   0.00000   0.16667   |    0.82457   0.00000   0.27486    |
 |   111    0.50000   0.00000   0.33333   |    0.82457   0.00000   0.54971    |
 |   112    0.50000   0.00000   0.50000   |    0.82457   0.00000   0.82457    |
 |   113    0.50000   0.00000   0.66667   |    0.82457   0.00000   1.09942    |
 |   114    0.50000   0.00000   0.83333   |    0.82457   0.00000   1.37428    |
 |   115    0.50000   0.16667   0.00000   |    0.82457   0.27486   0.00000    |
 |   116    0.50000   0.16667   0.16667   |    0.82457   0.27486   0.27486    |
 |   117    0.50000   0.16667   0.33333   |    0.82457   0.27486   0.54971    |
 |   118    0.50000   0.16667   0.50000   |    0.82457   0.27486   0.82457    |
 |   119    0.50000   0.16667   0.66667   |    0.82457   0.27486   1.09942    |
 |   120    0.50000   0.16667   0.83333   |    0.82457   0.27486   1.37428    |
 |   121    0.50000   0.33333   0.00000   |    0.82457   0.54971   0.00000    |
 |   122    0.50000   0.33333   0.16667   |    0.82457   0.54971   0.27486    |
 |   123    0.50000   0.33333   0.33333   |    0.82457   0.54971   0.54971    |
 |   124    0.50000   0.33333   0.50000   |    0.82457   0.54971   0.82457    |
 |   125    0.50000   0.33333   0.66667   |    0.82457   0.54971   1.09942    |
 |   126    0.50000   0.33333   0.83333   |    0.82457   0.54971   1.37428    |
 |   127    0.50000   0.50000   0.00000   |    0.82457   0.82457   0.00000    |
 |   128    0.50000   0.50000   0.16667   |    0.82457   0.82457   0.27486    |
 |   129    0.50000   0.50000   0.33333   |    0.82457   0.82457   0.54971    |
 |   130    0.50000   0.50000   0.50000   |    0.82457   0.82457   0.82457    |
 |   131    0.50000   0.50000   0.66667   |    0.82457   0.82457   1.09942    |
 |   132    0.50000   0.50000   0.83333   |    0.82457   0.82457   1.37428    |
 |   133    0.50000   0.66667   0.00000   |    0.82457   1.09942   0.00000    |
 |   134    0.50000   0.66667   0.16667   |    0.82457   1.09942   0.27486    |
 |   135    0.50000   0.66667   0.33333   |    0.82457   1.09942   0.54971    |
 |   136    0.50000   0.66667   0.50000   |    0.82457   1.09942   0.82457    |
 |   137    0.50000   0.66667   0.66667   |    0.82457   1.09942   1.09942    |
 |   138    0.50000   0.66667   0.83333   |    0.82457   1.09942   1.37428    |
 |   139    0.50000   0.83333   0.00000   |    0.82457   1.37428   0.00000    |
 |   140    0.50000   0.83333   0.16667   |    0.82457   1.37428   0.27486    |
 |   141    0.50000   0.83333   0.33333   |    0.82457   1.37428   0.54971    |
 |   142    0.50000   0.83333   0.50000   |    0.82457   1.37428   0.82457    |
 |   143    0.50000   0.83333   0.66667   |    0.82457   1.37428   1.09942    |
 |   144    0.50000   0.83333   0.83333   |    0.82457   1.37428   1.37428    |
 |   145    0.66667   0.00000   0.00000   |    1.09942   0.00000   0.00000    |
 |   146    0.66667   0.00000   0.16667   |    1.09942   0.00000   0.27486    |
 |   147    0.66667   0.00000   0.33333   |    1.09942   0.00000   0.54971    |
 |   148    0.66667   0.00000   0.50000   |    1.09942   0.00000   0.82457    |
 |   149    0.66667   0.00000   0.66667   |    1.09942   0.00000   1.09942    |
 |   150    0.66667   0.00000   0.83333   |    1.09942   0.00000   1.37428    |
 |   151    0.66667   0.16667   0.00000   |    1.09942   0.27486   0.00000    |
 |   152    0.66667   0.16667   0.16667   |    1.09942   0.27486   0.27486    |
 |   153    0.66667   0.16667   0.33333   |    1.09942   0.27486   0.54971    |
 |   154    0.66667   0.16667   0.50000   |    1.09942   0.27486   0.82457    |
 |   155    0.66667   0.16667   0.66667   |    1.09942   0.27486   1.09942    |
 |   156    0.66667   0.16667   0.83333   |    1.09942   0.27486   1.37428    |
 |   157    0.66667   0.33333   0.00000   |    1.09942   0.54971   0.00000    |
 |   158    0.66667   0.33333   0.16667   |    1.09942   0.54971   0.27486    |
 |   159    0.66667   0.33333   0.33333   |    1.09942   0.54971   0.54971    |
 |   160    0.66667   0.33333   0.50000   |    1.09942   0.54971   0.82457    |
 |   161    0.66667   0.33333   0.66667   |    1.09942   0.54971   1.09942    |
 |   162    0.66667   0.33333   0.83333   |    1.09942   0.54971   1.37428    |
 |   163    0.66667   0.50000   0.00000   |    1.09942   0.82457   0.00000    |
 |   164    0.66667   0.50000   0.16667   |    1.09942   0.82457   0.27486    |
 |   165    0.66667   0.50000   0.33333   |    1.09942   0.82457   0.54971    |
 |   166    0.66667   0.50000   0.50000   |    1.09942   0.82457   0.82457    |
 |   167    0.66667   0.50000   0.66667   |    1.09942   0.82457   1.09942    |
 |   168    0.66667   0.50000   0.83333   |    1.09942   0.82457   1.37428    |
 |   169    0.66667   0.66667   0.00000   |    1.09942   1.09942   0.00000    |
 |   170    0.66667   0.66667   0.16667   |    1.09942   1.09942   0.27486    |
 |   171    0.66667   0.66667   0.33333   |    1.09942   1.09942   0.54971    |
 |   172    0.66667   0.66667   0.50000   |    1.09942   1.09942   0.82457    |
 |   173    0.66667   0.66667   0.66667   |    1.09942   1.09942   1.09942    |
 |   174    0.66667   0.66667   0.83333   |    1.09942   1.09942   1.37428    |
 |   175    0.66667   0.83333   0.00000   |    1.09942   1.37428   0.00000    |
 |   176    0.66667   0.83333   0.16667   |    1.09942   1.37428   0.27486    |
 |   177    0.66667   0.83333   0.33333   |    1.09942   1.37428   0.54971    |
 |   178    0.66667   0.83333   0.50000   |    1.09942   1.37428   0.82457    |
 |   179    0.66667   0.83333   0.66667   |    1.09942   1.37428   1.09942    |
 |   180    0.66667   0.83333   0.83333   |    1.09942   1.37428   1.37428    |
 |   181    0.83333   0.00000   0.00000   |    1.37428   0.00000   0.00000    |
 |   182    0.83333   0.00000   0.16667   |    1.37428   0.00000   0.27486    |
 |   183    0.83333   0.00000   0.33333   |    1.37428   0.00000   0.54971    |
 |   184    0.83333   0.00000   0.50000   |    1.37428   0.00000   0.82457    |
 |   185    0.83333   0.00000   0.66667   |    1.37428   0.00000   1.09942    |
 |   186    0.83333   0.00000   0.83333   |    1.37428   0.00000   1.37428    |
 |   187    0.83333   0.16667   0.00000   |    1.37428   0.27486   0.00000    |
 |   188    0.83333   0.16667   0.16667   |    1.37428   0.27486   0.27486    |
 |   189    0.83333   0.16667   0.33333   |    1.37428   0.27486   0.54971    |
 |   190    0.83333   0.16667   0.50000   |    1.37428   0.27486   0.82457    |
 |   191    0.83333   0.16667   0.66667   |    1.37428   0.27486   1.09942    |
 |   192    0.83333   0.16667   0.83333   |    1.37428   0.27486   1.37428    |
 |   193    0.83333   0.33333   0.00000   |    1.37428   0.54971   0.00000    |
 |   194    0.83333   0.33333   0.16667   |    1.37428   0.54971   0.27486    |
 |   195    0.83333   0.33333   0.33333   |    1.37428   0.54971   0.54971    |
 |   196    0.83333   0.33333   0.50000   |    1.37428   0.54971   0.82457    |
 |   197    0.83333   0.33333   0.66667   |    1.37428   0.54971   1.09942    |
 |   198    0.83333   0.33333   0.83333   |    1.37428   0.54971   1.37428    |
 |   199    0.83333   0.50000   0.00000   |    1.37428   0.82457   0.00000    |
 |   200    0.83333   0.50000   0.16667   |    1.37428   0.82457   0.27486    |
 |   201    0.83333   0.50000   0.33333   |    1.37428   0.82457   0.54971    |
 |   202    0.83333   0.50000   0.50000   |    1.37428   0.82457   0.82457    |
 |   203    0.83333   0.50000   0.66667   |    1.37428   0.82457   1.09942    |
 |   204    0.83333   0.50000   0.83333   |    1.37428   0.82457   1.37428    |
 |   205    0.83333   0.66667   0.00000   |    1.37428   1.09942   0.00000    |
 |   206    0.83333   0.66667   0.16667   |    1.37428   1.09942   0.27486    |
 |   207    0.83333   0.66667   0.33333   |    1.37428   1.09942   0.54971    |
 |   208    0.83333   0.66667   0.50000   |    1.37428   1.09942   0.82457    |
 |   209    0.83333   0.66667   0.66667   |    1.37428   1.09942   1.09942    |
 |   210    0.83333   0.66667   0.83333   |    1.37428   1.09942   1.37428    |
 |   211    0.83333   0.83333   0.00000   |    1.37428   1.37428   0.00000    |
 |   212    0.83333   0.83333   0.16667   |    1.37428   1.37428   0.27486    |
 |   213    0.83333   0.83333   0.33333   |    1.37428   1.37428   0.54971    |
 |   214    0.83333   0.83333   0.50000   |    1.37428   1.37428   0.82457    |
 |   215    0.83333   0.83333   0.66667   |    1.37428   1.37428   1.09942    |
 |   216    0.83333   0.83333   0.83333   |    1.37428   1.37428   1.37428    |
 *----------------------------------------------------------------------------*
  
  
 *---------------------------------- MAIN ------------------------------------*
 |  Number of Wannier Functions               :                14             |
 |  Number of Objective Wannier Functions     :                14             |
 |  Number of input Bloch states              :                18             |
 |  Output verbosity (1=low, 5=high)          :                 2             |
 |  Timing Level (1=low, 5=high)              :                 1             |
 |  Optimisation (0=memory, 3=speed)          :                 3             |
 |  Length Unit                               :               Ang             |
 |  Post-processing setup (write *.nnkp)      :                 F             |
 |  Using Gamma-only branch of algorithms     :                 F             |
 *----------------------------------------------------------------------------*
 *------------------------------- WANNIERISE ---------------------------------*
 |  Total number of iterations                :               400             |
 |  Number of CG steps before reset           :                 5             |
 |  Trial step length for line search         :             2.000             |
 |  Convergence tolerence                     :         0.100E-11             |
 |  Convergence window                        :                 5             |
 |  Iterations between writing output         :                 1             |
 |  Iterations between backing up to disk     :               100             |
 |  Write r^2_nm to file                      :                 F             |
 |  Write xyz WF centres to file              :                 T             |
 |  Write on-site energies <0n|H|0n> to file  :                 F             |
 |  Use guiding centre to control phases      :                 F             |
 |  Use phases for initial projections        :                 F             |
 *----------------------------------------------------------------------------*
 *------------------------------- DISENTANGLE --------------------------------*
 |  Using band disentanglement                :                 T             |
 |  Total number of iterations                :               200             |
 |  Mixing ratio                              :             0.500             |
 |  Convergence tolerence                     :         1.000E-12             |
 |  Convergence window                        :                 9             |
 *----------------------------------------------------------------------------*
 *-------------------------------- PLOTTING ----------------------------------*
 |  Plotting interpolated bandstructure       :                 T             |
 |   Number of K-path sections                :                 4             |
 |   Divisions along first K-path section     :                30             |
 |   Output format                            :           gnuplot             |
 |   Output mode                              :               s-k             |
 *----------------------------------------------------------------------------*
 |   K-space path sections:                                                   |
 |    From: G       0.000  0.000  0.000     To: M       0.500  0.500  0.000   |
 |    From: M       0.500  0.500  0.000     To: X       0.500  0.000  0.000   |
 |    From: X       0.500  0.000  0.000     To: G       0.000  0.000  0.000   |
 |    From: G       0.000  0.000  0.000     To: R       0.500  0.500  0.500   |
 *----------------------------------------------------------------------------*
 |  Plotting Hamiltonian in WF basis          :                 T             |
 *----------------------------------------------------------------------------*
 Time to read parameters        0.034 (sec)

 *---------------------------------- K-MESH ----------------------------------*
 +----------------------------------------------------------------------------+
 |                    Distance to Nearest-Neighbour Shells                    |
 |                    ------------------------------------                    |
 |          Shell             Distance (Ang^-1)          Multiplicity         |
 |          -----             -----------------          ------------         |
 |             1                   0.274855                      6            |
 |             2                   0.388704                     12            |
 |             3                   0.476063                      8            |
 |             4                   0.549710                      6            |
 |             5                   0.614594                     24            |
 |             6                   0.673255                     24            |
 |             7                   0.777407                     12            |
 |             8                   0.824565                     30            |
 |             9                   0.869168                     24            |
 |            10                   0.911591                     24            |
 |            11                   0.952126                      8            |
 |            12                   0.991004                     24            |
 |            13                   1.028413                     48            |
 |            14                   1.099420                      6            |
 |            15                   1.133256                     48            |
 |            16                   1.166111                     36            |
 |            17                   1.198065                     24            |
 |            18                   1.229189                     24            |
 |            19                   1.259544                     48            |
 |            20                   1.289184                     24            |
 |            21                   1.346509                     24            |
 |            22                   1.374275                     30            |
 |            23                   1.401491                     72            |
 |            24                   1.428188                     32            |
 |            25                   1.480139                     72            |
 |            26                   1.505443                     48            |
 |            27                   1.554815                     12            |
 |            28                   1.578922                     48            |
 |            29                   1.602666                     48            |
 |            30                   1.626064                     48            |
 |            31                   1.649130                     30            |
 |            32                   1.671878                     24            |
 |            33                   1.694320                     72            |
 |            34                   1.738336                     24            |
 |            35                   1.759931                     96            |
 |            36                   1.781264                     48            |
 +----------------------------------------------------------------------------+
 | The b-vectors are chosen automatically                                     |
 | Shell:  1 w_b    6.6185480      (Ang^2)                                    |
 | The following shells are used:   1                                         |
 +----------------------------------------------------------------------------+
 |                        Shell   # Nearest-Neighbours                        |
 |                        -----   --------------------                        |
 |                          1               6                                 |
 +----------------------------------------------------------------------------+
 | Completeness relation is fully satisfied [Eq. (B1), PRB 56, 12847 (1997)]  |
 +----------------------------------------------------------------------------+
 |                  b_k Vectors (Ang^-1) and Weights (Ang^2)                  |
 |                  ----------------------------------------                  |
 |            No.         b_k(x)      b_k(y)      b_k(z)        w_b           |
 |            ---        --------------------------------     --------        |
 |             1         0.000000    0.000000    0.274855     6.618548        |
 |             2         0.000000    0.274855    0.000000     6.618548        |
 |             3         0.274855    0.000000    0.000000     6.618548        |
 |             4         0.000000    0.000000   -0.274855     6.618548        |
 |             5         0.000000   -0.274855    0.000000     6.618548        |
 |             6        -0.274855    0.000000    0.000000     6.618548        |
 +----------------------------------------------------------------------------+
 |                           b_k Directions (Ang^-1)                          |
 |                           -----------------------                          |
 |            No.           x           y           z                         |
 |            ---        --------------------------------                     |
 |             1         0.000000    0.000000    0.274855                     |
 |             2         0.000000    0.274855    0.000000                     |
 |             3         0.274855    0.000000    0.000000                     |
 +----------------------------------------------------------------------------+
  
 Time to get kmesh              0.066 (sec)
 *============================================================================*
 |                              MEMORY ESTIMATE                               |
 |         Maximum RAM allocated during each phase of the calculation         |
 *============================================================================*
 |                        Disentanglement           12.75 Mb                  |
 |                            Wannierise:           11.98 Mb                  |
 |                                                                            |
 |   N.B. by setting optimisation=0 memory usage will be reduced to:          |
 |                        Disentanglement           11.04 Mb                  |
 |                            Wannierise:            8.10 Mb                  |
 |   However, this will result in more i/o and slow down the calculation      |
 |                          plot_wannier:           11.98 Mb                  |
 *----------------------------------------------------------------------------*
  
 Starting a new Wannier90 calculation ...


 Reading overlaps from SrMnO3_down.mmn    :  Created on 30Oct2020 at 11:12:17

 Reading projections from SrMnO3_down.amn :  Created on 30Oct2020 at 11:12:11

 Time to read overlaps          0.466 (sec)

 *------------------------------- DISENTANGLE --------------------------------*
 +----------------------------------------------------------------------------+
 |                              Energy  Windows                               |
 |                              ---------------                               |
 |                   Outer:    2.30000  to   17.70000  (eV)                   |
 |                   No frozen states were specified                          |
 +----------------------------------------------------------------------------+
 |                        K-points with Frozen States                         |
 |                        ---------------------------                         |
 +----------------------------------------------------------------------------+
   Number of target bands to extract:   14
 +----------------------------------------------------------------------------+
 |                                  Windows                                   |
 |                                  -------                                   |
 |               K-point      Ndimwin     Ndimfroz    Nfirstwin               |
 |               ----------------------------------------------               |
 |                   1           14            0           5                  |
 |                   2           14            0           5                  |
 |                   3           14            0           5                  |
 |                   4           14            0           5                  |
 |                   5           14            0           5                  |
 |                   6           14            0           5                  |
 |                   7           14            0           5                  |
 |                   8           14            0           5                  |
 |                   9           14            0           5                  |
 |                  10           14            0           5                  |
 |                  11           14            0           5                  |
 |                  12           14            0           5                  |
 |                  13           14            0           5                  |
 |                  14           14            0           5                  |
 |                  15           14            0           5                  |
 |                  16           14            0           5                  |
 |                  17           14            0           5                  |
 |                  18           14            0           5                  |
 |                  19           14            0           5                  |
 |                  20           14            0           5                  |
 |                  21           14            0           5                  |
 |                  22           14            0           5                  |
 |                  23           14            0           5                  |
 |                  24           14            0           5                  |
 |                  25           14            0           5                  |
 |                  26           14            0           5                  |
 |                  27           14            0           5                  |
 |                  28           14            0           5                  |
 |                  29           14            0           5                  |
 |                  30           14            0           5                  |
 |                  31           14            0           5                  |
 |                  32           14            0           5                  |
 |                  33           14            0           5                  |
 |                  34           14            0           5                  |
 |                  35           14            0           5                  |
 |                  36           14            0           5                  |
 |                  37           14            0           5                  |
 |                  38           14            0           5                  |
 |                  39           14            0           5                  |
 |                  40           14            0           5                  |
 |                  41           14            0           5                  |
 |                  42           14            0           5                  |
 |                  43           14            0           5                  |
 |                  44           14            0           5                  |
 |                  45           14            0           5                  |
 |                  46           14            0           5                  |
 |                  47           14            0           5                  |
 |                  48           14            0           5                  |
 |                  49           14            0           5                  |
 |                  50           14            0           5                  |
 |                  51           14            0           5                  |
 |                  52           14            0           5                  |
 |                  53           14            0           5                  |
 |                  54           14            0           5                  |
 |                  55           14            0           5                  |
 |                  56           14            0           5                  |
 |                  57           14            0           5                  |
 |                  58           14            0           5                  |
 |                  59           14            0           5                  |
 |                  60           14            0           5                  |
 |                  61           14            0           5                  |
 |                  62           14            0           5                  |
 |                  63           14            0           5                  |
 |                  64           14            0           5                  |
 |                  65           14            0           5                  |
 |                  66           14            0           5                  |
 |                  67           14            0           5                  |
 |                  68           14            0           5                  |
 |                  69           14            0           5                  |
 |                  70           14            0           5                  |
 |                  71           14            0           5                  |
 |                  72           14            0           5                  |
 |                  73           14            0           5                  |
 |                  74           14            0           5                  |
 |                  75           14            0           5                  |
 |                  76           14            0           5                  |
 |                  77           14            0           5                  |
 |                  78           14            0           5                  |
 |                  79           14            0           5                  |
 |                  80           14            0           5                  |
 |                  81           14            0           5                  |
 |                  82           14            0           5                  |
 |                  83           14            0           5                  |
 |                  84           14            0           5                  |
 |                  85           14            0           5                  |
 |                  86           14            0           5                  |
 |                  87           14            0           5                  |
 |                  88           14            0           5                  |
 |                  89           14            0           5                  |
 |                  90           14            0           5                  |
 |                  91           14            0           5                  |
 |                  92           14            0           5                  |
 |                  93           14            0           5                  |
 |                  94           14            0           5                  |
 |                  95           14            0           5                  |
 |                  96           14            0           5                  |
 |                  97           14            0           5                  |
 |                  98           14            0           5                  |
 |                  99           14            0           5                  |
 |                 100           14            0           5                  |
 |                 101           14            0           5                  |
 |                 102           14            0           5                  |
 |                 103           14            0           5                  |
 |                 104           14            0           5                  |
 |                 105           14            0           5                  |
 |                 106           14            0           5                  |
 |                 107           14            0           5                  |
 |                 108           14            0           5                  |
 |                 109           14            0           5                  |
 |                 110           14            0           5                  |
 |                 111           14            0           5                  |
 |                 112           14            0           5                  |
 |                 113           14            0           5                  |
 |                 114           14            0           5                  |
 |                 115           14            0           5                  |
 |                 116           14            0           5                  |
 |                 117           14            0           5                  |
 |                 118           14            0           5                  |
 |                 119           14            0           5                  |
 |                 120           14            0           5                  |
 |                 121           14            0           5                  |
 |                 122           14            0           5                  |
 |                 123           14            0           5                  |
 |                 124           14            0           5                  |
 |                 125           14            0           5                  |
 |                 126           14            0           5                  |
 |                 127           14            0           5                  |
 |                 128           14            0           5                  |
 |                 129           14            0           5                  |
 |                 130           14            0           5                  |
 |                 131           14            0           5                  |
 |                 132           14            0           5                  |
 |                 133           14            0           5                  |
 |                 134           14            0           5                  |
 |                 135           14            0           5                  |
 |                 136           14            0           5                  |
 |                 137           14            0           5                  |
 |                 138           14            0           5                  |
 |                 139           14            0           5                  |
 |                 140           14            0           5                  |
 |                 141           14            0           5                  |
 |                 142           14            0           5                  |
 |                 143           14            0           5                  |
 |                 144           14            0           5                  |
 |                 145           14            0           5                  |
 |                 146           14            0           5                  |
 |                 147           14            0           5                  |
 |                 148           14            0           5                  |
 |                 149           14            0           5                  |
 |                 150           14            0           5                  |
 |                 151           14            0           5                  |
 |                 152           14            0           5                  |
 |                 153           14            0           5                  |
 |                 154           14            0           5                  |
 |                 155           14            0           5                  |
 |                 156           14            0           5                  |
 |                 157           14            0           5                  |
 |                 158           14            0           5                  |
 |                 159           14            0           5                  |
 |                 160           14            0           5                  |
 |                 161           14            0           5                  |
 |                 162           14            0           5                  |
 |                 163           14            0           5                  |
 |                 164           14            0           5                  |
 |                 165           14            0           5                  |
 |                 166           14            0           5                  |
 |                 167           14            0           5                  |
 |                 168           14            0           5                  |
 |                 169           14            0           5                  |
 |                 170           14            0           5                  |
 |                 171           14            0           5                  |
 |                 172           14            0           5                  |
 |                 173           14            0           5                  |
 |                 174           14            0           5                  |
 |                 175           14            0           5                  |
 |                 176           14            0           5                  |
 |                 177           14            0           5                  |
 |                 178           14            0           5                  |
 |                 179           14            0           5                  |
 |                 180           14            0           5                  |
 |                 181           14            0           5                  |
 |                 182           14            0           5                  |
 |                 183           14            0           5                  |
 |                 184           14            0           5                  |
 |                 185           14            0           5                  |
 |                 186           14            0           5                  |
 |                 187           14            0           5                  |
 |                 188           14            0           5                  |
 |                 189           14            0           5                  |
 |                 190           14            0           5                  |
 |                 191           14            0           5                  |
 |                 192           14            0           5                  |
 |                 193           14            0           5                  |
 |                 194           14            0           5                  |
 |                 195           14            0           5                  |
 |                 196           14            0           5                  |
 |                 197           14            0           5                  |
 |                 198           14            0           5                  |
 |                 199           14            0           5                  |
 |                 200           14            0           5                  |
 |                 201           14            0           5                  |
 |                 202           14            0           5                  |
 |                 203           14            0           5                  |
 |                 204           14            0           5                  |
 |                 205           14            0           5                  |
 |                 206           14            0           5                  |
 |                 207           14            0           5                  |
 |                 208           14            0           5                  |
 |                 209           14            0           5                  |
 |                 210           14            0           5                  |
 |                 211           14            0           5                  |
 |                 212           14            0           5                  |
 |                 213           14            0           5                  |
 |                 214           14            0           5                  |
 |                 215           14            0           5                  |
 |                 216           14            0           5                  |
 +----------------------------------------------------------------------------+

                   Unitarised projection of Wannier functions                  
                   ------------------------------------------                  
   A_mn = <psi_m|g_n> --> S = A.A^+ --> U = S^-1/2.A
   In dis_project... done
   No inner window (linner = F)

                   Extraction of optimally-connected subspace                  
                   ------------------------------------------                  
 +---------------------------------------------------------------------+<-- DIS
 |  Iter     Omega_I(i-1)      Omega_I(i)      Delta (frac.)    Time   |<-- DIS
 +---------------------------------------------------------------------+<-- DIS
       1      10.82990534      10.82990534      -2.054E-14      0.00    <-- DIS
       2      10.82990534      10.82990534      -1.454E-14      0.02    <-- DIS
       3      10.82990534      10.82990534      -1.310E-14      0.03    <-- DIS
       4      10.82990534      10.82990534      -1.232E-14      0.05    <-- DIS
       5      10.82990534      10.82990534      -1.266E-14      0.07    <-- DIS
       6      10.82990534      10.82990534      -1.743E-14      0.09    <-- DIS
       7      10.82990534      10.82990534      -1.643E-14      0.10    <-- DIS
       8      10.82990534      10.82990534      -1.443E-14      0.12    <-- DIS
       9      10.82990534      10.82990534      -1.277E-14      0.14    <-- DIS

             <<<      Delta < 1.000E-12  over  9 iterations     >>>
             <<< Disentanglement convergence criteria satisfied >>>

        Final Omega_I    10.82990534 (Ang^2)

 +----------------------------------------------------------------------------+

 Time to disentangle bands      0.217 (sec)

 Writing checkpoint file SrMnO3_down.chk... done


 *------------------------------- WANNIERISE ---------------------------------*
 +--------------------------------------------------------------------+<-- CONV
 | Iter  Delta Spread     RMS Gradient      Spread (Ang^2)      Time  |<-- CONV
 +--------------------------------------------------------------------+<-- CONV

 ------------------------------------------------------------------------------
 Initial State
  WF centre and spread    1  (  1.905000,  1.905000,  1.905000 )     0.50990241
  WF centre and spread    2  (  1.905000,  1.905000,  1.905000 )     0.63805431
  WF centre and spread    3  (  1.905000,  1.905000,  1.905000 )     0.63805431
  WF centre and spread    4  (  1.905000,  1.905000,  1.905000 )     0.50989730
  WF centre and spread    5  (  1.905000,  1.905000,  1.905000 )     0.63805427
  WF centre and spread    6  (  0.000000,  1.905000,  1.905000 )     0.98593044
  WF centre and spread    7  (  0.000000,  1.905000,  1.905000 )     0.74639455
  WF centre and spread    8  ( -0.000000,  1.905000,  1.905000 )     0.98593111
  WF centre and spread    9  (  1.905000, -0.000000,  1.905000 )     0.98593044
  WF centre and spread   10  (  1.905000,  0.000000,  1.905000 )     0.98593111
  WF centre and spread   11  (  1.905000,  0.000000,  1.905000 )     0.74639455
  WF centre and spread   12  (  1.905000,  1.905000,  0.000000 )     0.74647517
  WF centre and spread   13  (  1.905000,  1.905000,  0.000000 )     0.98593063
  WF centre and spread   14  (  1.905000,  1.905000, -0.000000 )     0.98593063
  Sum of centres and spreads ( 20.955000, 20.955000, 20.955000 )    11.08881124

      0     0.111E+02     0.0000000000       11.0888112410       0.19  <-- CONV
        O_D=      0.0000000 O_OD=      0.2589059 O_TOT=     11.0888112 <-- SPRD
 ------------------------------------------------------------------------------
 Cycle:      1
  WF centre and spread    1  (  1.905000,  1.905000,  1.905000 )     0.50901906
  WF centre and spread    2  (  1.905000,  1.905000,  1.905000 )     0.63663910
  WF centre and spread    3  (  1.905000,  1.905000,  1.905000 )     0.63663910
  WF centre and spread    4  (  1.905000,  1.905000,  1.905000 )     0.50901854
  WF centre and spread    5  (  1.905000,  1.905000,  1.905000 )     0.63663901
  WF centre and spread    6  (  0.000000,  1.905000,  1.905000 )     0.98531743
  WF centre and spread    7  (  0.000000,  1.905000,  1.905000 )     0.74381160
  WF centre and spread    8  ( -0.000000,  1.905000,  1.905000 )     0.98531725
  WF centre and spread    9  (  1.905000, -0.000000,  1.905000 )     0.98531743
  WF centre and spread   10  (  1.905000,  0.000000,  1.905000 )     0.98531725
  WF centre and spread   11  (  1.905000,  0.000000,  1.905000 )     0.74381160
  WF centre and spread   12  (  1.905000,  1.905000,  0.000000 )     0.74387989
  WF centre and spread   13  (  1.905000,  1.905000,  0.000000 )     0.98531727
  WF centre and spread   14  (  1.905000,  1.905000, -0.000000 )     0.98531727
  Sum of centres and spreads ( 20.955000, 20.955000, 20.955000 )    11.07136181

      1    -0.174E-01     0.0913039881       11.0713618080       0.23  <-- CONV
        O_D=      0.0000000 O_OD=      0.2414565 O_TOT=     11.0713618 <-- SPRD
 Delta: O_D=  0.1872494E-14 O_OD= -0.1744943E-01 O_TOT= -0.1744943E-01 <-- DLTA
 ------------------------------------------------------------------------------
 Cycle:      2
  WF centre and spread    1  (  1.905000,  1.905000,  1.905000 )     0.50889035
  WF centre and spread    2  (  1.905000,  1.905000,  1.905000 )     0.63599403
  WF centre and spread    3  (  1.905000,  1.905000,  1.905000 )     0.63599403
  WF centre and spread    4  (  1.905000,  1.905000,  1.905000 )     0.50889368
  WF centre and spread    5  (  1.905000,  1.905000,  1.905000 )     0.63599416
  WF centre and spread    6  (  0.000000,  1.905000,  1.905000 )     0.98485524
  WF centre and spread    7  (  0.000000,  1.905000,  1.905000 )     0.74087840
  WF centre and spread    8  ( -0.000000,  1.905000,  1.905000 )     0.98485411
  WF centre and spread    9  (  1.905000, -0.000000,  1.905000 )     0.98485524
  WF centre and spread   10  (  1.905000,  0.000000,  1.905000 )     0.98485411
  WF centre and spread   11  (  1.905000,  0.000000,  1.905000 )     0.74087840
  WF centre and spread   12  (  1.905000,  1.905000,  0.000000 )     0.74096975
  WF centre and spread   13  (  1.905000,  1.905000,  0.000000 )     0.98485497
  WF centre and spread   14  (  1.905000,  1.905000, -0.000000 )     0.98485497
  Sum of centres and spreads ( 20.955000, 20.955000, 20.955000 )    11.05762144

      2    -0.137E-01     0.1152043471       11.0576214446       0.27  <-- CONV
        O_D=      0.0000000 O_OD=      0.2277161 O_TOT=     11.0576214 <-- SPRD
 Delta: O_D= -0.1466364E-14 O_OD= -0.1374036E-01 O_TOT= -0.1374036E-01 <-- DLTA
 ------------------------------------------------------------------------------
 Cycle:      3
  WF centre and spread    1  (  1.905000,  1.905000,  1.905000 )     0.50955666
  WF centre and spread    2  (  1.905000,  1.905000,  1.905000 )     0.63648610
  WF centre and spread    3  (  1.905000,  1.905000,  1.905000 )     0.63648610
  WF centre and spread    4  (  1.905000,  1.905000,  1.905000 )     0.50956130
  WF centre and spread    5  (  1.905000,  1.905000,  1.905000 )     0.63648613
  WF centre and spread    6  (  0.000000,  1.905000,  1.905000 )     0.98433221
  WF centre and spread    7  (  0.000000,  1.905000,  1.905000 )     0.73817967
  WF centre and spread    8  ( -0.000000,  1.905000,  1.905000 )     0.98433121
  WF centre and spread    9  (  1.905000, -0.000000,  1.905000 )     0.98433221
  WF centre and spread   10  (  1.905000,  0.000000,  1.905000 )     0.98433121
  WF centre and spread   11  (  1.905000,  0.000000,  1.905000 )     0.73817967
  WF centre and spread   12  (  1.905000,  1.905000,  0.000000 )     0.73827734
  WF centre and spread   13  (  1.905000,  1.905000,  0.000000 )     0.98433166
  WF centre and spread   14  (  1.905000,  1.905000, -0.000000 )     0.98433166
  Sum of centres and spreads ( 20.955000, 20.955000, 20.955000 )    11.04920312

      3    -0.842E-02     0.0812285827       11.0492031166       0.30  <-- CONV
        O_D=      0.0000000 O_OD=      0.2192978 O_TOT=     11.0492031 <-- SPRD
 Delta: O_D=  0.3340533E-15 O_OD= -0.8418328E-02 O_TOT= -0.8418328E-02 <-- DLTA
 ------------------------------------------------------------------------------
 Cycle:      4
  WF centre and spread    1  (  1.905000,  1.905000,  1.905000 )     0.51143982
  WF centre and spread    2  (  1.905000,  1.905000,  1.905000 )     0.63757908
  WF centre and spread    3  (  1.905000,  1.905000,  1.905000 )     0.63757908
  WF centre and spread    4  (  1.905000,  1.905000,  1.905000 )     0.51144417
  WF centre and spread    5  (  1.905000,  1.905000,  1.905000 )     0.63757910
  WF centre and spread    6  (  0.000000,  1.905000,  1.905000 )     0.98337061
  WF centre and spread    7  (  0.000000,  1.905000,  1.905000 )     0.73468487
  WF centre and spread    8  ( -0.000000,  1.905000,  1.905000 )     0.98336967
  WF centre and spread    9  (  1.905000, -0.000000,  1.905000 )     0.98337061
  WF centre and spread   10  (  1.905000,  0.000000,  1.905000 )     0.98336967
  WF centre and spread   11  (  1.905000,  0.000000,  1.905000 )     0.73468487
  WF centre and spread   12  (  1.905000,  1.905000,  0.000000 )     0.73476228
  WF centre and spread   13  (  1.905000,  1.905000,  0.000000 )     0.98336919
  WF centre and spread   14  (  1.905000,  1.905000, -0.000000 )     0.98336919
  Sum of centres and spreads ( 20.955000, 20.955000, 20.955000 )    11.03997222

      4    -0.923E-02     0.0801580102       11.0399722222       0.34  <-- CONV
        O_D=      0.0000000 O_OD=      0.2100669 O_TOT=     11.0399722 <-- SPRD
 Delta: O_D=  0.1141641E-15 O_OD= -0.9230894E-02 O_TOT= -0.9230894E-02 <-- DLTA
 ------------------------------------------------------------------------------
 Cycle:      5
  WF centre and spread    1  (  1.905000,  1.905000,  1.905000 )     0.51320779
  WF centre and spread    2  (  1.905000,  1.905000,  1.905000 )     0.63840468
  WF centre and spread    3  (  1.905000,  1.905000,  1.905000 )     0.63840468
  WF centre and spread    4  (  1.905000,  1.905000,  1.905000 )     0.51321083
  WF centre and spread    5  (  1.905000,  1.905000,  1.905000 )     0.63840472
  WF centre and spread    6  (  0.000000,  1.905000,  1.905000 )     0.98255287
  WF centre and spread    7  (  0.000000,  1.905000,  1.905000 )     0.73236459
  WF centre and spread    8  ( -0.000000,  1.905000,  1.905000 )     0.98255224
  WF centre and spread    9  (  1.905000, -0.000000,  1.905000 )     0.98255287
  WF centre and spread   10  (  1.905000,  0.000000,  1.905000 )     0.98255224
  WF centre and spread   11  (  1.905000,  0.000000,  1.905000 )     0.73236459
  WF centre and spread   12  (  1.905000,  1.905000,  0.000000 )     0.73241957
  WF centre and spread   13  (  1.905000,  1.905000,  0.000000 )     0.98255191
  WF centre and spread   14  (  1.905000,  1.905000, -0.000000 )     0.98255191
  Sum of centres and spreads ( 20.955000, 20.955000, 20.955000 )    11.03409549

      5    -0.588E-02     0.0775809962       11.0340954946       0.38  <-- CONV
        O_D=      0.0000000 O_OD=      0.2041902 O_TOT=     11.0340955 <-- SPRD
 Delta: O_D= -0.5963293E-15 O_OD= -0.5876728E-02 O_TOT= -0.5876728E-02 <-- DLTA
 ------------------------------------------------------------------------------
 Cycle:      6
  WF centre and spread    1  (  1.905000,  1.905000,  1.905000 )     0.51434304
  WF centre and spread    2  (  1.905000,  1.905000,  1.905000 )     0.63891696
  WF centre and spread    3  (  1.905000,  1.905000,  1.905000 )     0.63891696
  WF centre and spread    4  (  1.905000,  1.905000,  1.905000 )     0.51434493
  WF centre and spread    5  (  1.905000,  1.905000,  1.905000 )     0.63891697
  WF centre and spread    6  (  0.000000,  1.905000,  1.905000 )     0.98203236
  WF centre and spread    7  (  0.000000,  1.905000,  1.905000 )     0.73118385
  WF centre and spread    8  ( -0.000000,  1.905000,  1.905000 )     0.98203193
  WF centre and spread    9  (  1.905000, -0.000000,  1.905000 )     0.98203236
  WF centre and spread   10  (  1.905000,  0.000000,  1.905000 )     0.98203193
  WF centre and spread   11  (  1.905000,  0.000000,  1.905000 )     0.73118385
  WF centre and spread   12  (  1.905000,  1.905000,  0.000000 )     0.73122021
  WF centre and spread   13  (  1.905000,  1.905000,  0.000000 )     0.98203171
  WF centre and spread   14  (  1.905000,  1.905000, -0.000000 )     0.98203171
  Sum of centres and spreads ( 20.955000, 20.955000, 20.955000 )    11.03121877

      6    -0.288E-02     0.0525723887       11.0312187669       0.42  <-- CONV
        O_D=      0.0000000 O_OD=      0.2013134 O_TOT=     11.0312188 <-- SPRD
 Delta: O_D= -0.1211245E-15 O_OD= -0.2876728E-02 O_TOT= -0.2876728E-02 <-- DLTA
 ------------------------------------------------------------------------------
 Cycle:      7
  WF centre and spread    1  (  1.905000,  1.905000,  1.905000 )     0.51433277
  WF centre and spread    2  (  1.905000,  1.905000,  1.905000 )     0.63886575
  WF centre and spread    3  (  1.905000,  1.905000,  1.905000 )     0.63886575
  WF centre and spread    4  (  1.905000,  1.905000,  1.905000 )     0.51433460
  WF centre and spread    5  (  1.905000,  1.905000,  1.905000 )     0.63886573
  WF centre and spread    6  (  0.000000,  1.905000,  1.905000 )     0.98195882
  WF centre and spread    7  (  0.000000,  1.905000,  1.905000 )     0.73109012
  WF centre and spread    8  ( -0.000000,  1.905000,  1.905000 )     0.98195837
  WF centre and spread    9  (  1.905000, -0.000000,  1.905000 )     0.98195882
  WF centre and spread   10  (  1.905000,  0.000000,  1.905000 )     0.98195837
  WF centre and spread   11  (  1.905000,  0.000000,  1.905000 )     0.73109012
  WF centre and spread   12  (  1.905000,  1.905000,  0.000000 )     0.73112231
  WF centre and spread   13  (  1.905000,  1.905000,  0.000000 )     0.98195824
  WF centre and spread   14  (  1.905000,  1.905000, -0.000000 )     0.98195824
  Sum of centres and spreads ( 20.955000, 20.955000, 20.955000 )    11.03031801

      7    -0.901E-03     0.0375475159       11.0303180061       0.46  <-- CONV
        O_D=      0.0000000 O_OD=      0.2004127 O_TOT=     11.0303180 <-- SPRD
 Delta: O_D= -0.2029232E-15 O_OD= -0.9007609E-03 O_TOT= -0.9007609E-03 <-- DLTA
 ------------------------------------------------------------------------------
 Cycle:      8
  WF centre and spread    1  (  1.905000,  1.905000,  1.905000 )     0.51441527
  WF centre and spread    2  (  1.905000,  1.905000,  1.905000 )     0.63890215
  WF centre and spread    3  (  1.905000,  1.905000,  1.905000 )     0.63890215
  WF centre and spread    4  (  1.905000,  1.905000,  1.905000 )     0.51441698
  WF centre and spread    5  (  1.905000,  1.905000,  1.905000 )     0.63890210
  WF centre and spread    6  (  0.000000,  1.905000,  1.905000 )     0.98188487
  WF centre and spread    7  (  0.000000,  1.905000,  1.905000 )     0.73097924
  WF centre and spread    8  ( -0.000000,  1.905000,  1.905000 )     0.98188439
  WF centre and spread    9  (  1.905000, -0.000000,  1.905000 )     0.98188487
  WF centre and spread   10  (  1.905000,  0.000000,  1.905000 )     0.98188439
  WF centre and spread   11  (  1.905000,  0.000000,  1.905000 )     0.73097924
  WF centre and spread   12  (  1.905000,  1.905000,  0.000000 )     0.73100464
  WF centre and spread   13  (  1.905000,  1.905000,  0.000000 )     0.98188446
  WF centre and spread   14  (  1.905000,  1.905000, -0.000000 )     0.98188446
  Sum of centres and spreads ( 20.955000, 20.955000, 20.955000 )    11.02980919

      8    -0.509E-03     0.0221101288       11.0298091938       0.50  <-- CONV
        O_D=      0.0000000 O_OD=      0.1999039 O_TOT=     11.0298092 <-- SPRD
 Delta: O_D= -0.4449342E-16 O_OD= -0.5088122E-03 O_TOT= -0.5088122E-03 <-- DLTA
 ------------------------------------------------------------------------------
 Cycle:      9
  WF centre and spread    1  (  1.905000,  1.905000,  1.905000 )     0.51450238
  WF centre and spread    2  (  1.905000,  1.905000,  1.905000 )     0.63896069
  WF centre and spread    3  (  1.905000,  1.905000,  1.905000 )     0.63896069
  WF centre and spread    4  (  1.905000,  1.905000,  1.905000 )     0.51450393
  WF centre and spread    5  (  1.905000,  1.905000,  1.905000 )     0.63896065
  WF centre and spread    6  (  0.000000,  1.905000,  1.905000 )     0.98183876
  WF centre and spread    7  (  0.000000,  1.905000,  1.905000 )     0.73089461
  WF centre and spread    8  ( -0.000000,  1.905000,  1.905000 )     0.98183825
  WF centre and spread    9  (  1.905000, -0.000000,  1.905000 )     0.98183876
  WF centre and spread   10  (  1.905000,  0.000000,  1.905000 )     0.98183825
  WF centre and spread   11  (  1.905000,  0.000000,  1.905000 )     0.73089461
  WF centre and spread   12  (  1.905000,  1.905000,  0.000000 )     0.73091572
  WF centre and spread   13  (  1.905000,  1.905000,  0.000000 )     0.98183845
  WF centre and spread   14  (  1.905000,  1.905000, -0.000000 )     0.98183845
  Sum of centres and spreads ( 20.955000, 20.955000, 20.955000 )    11.02962421

      9    -0.185E-03     0.0147359515       11.0296242123       0.54  <-- CONV
        O_D=      0.0000000 O_OD=      0.1997189 O_TOT=     11.0296242 <-- SPRD
 Delta: O_D= -0.9152012E-16 O_OD= -0.1849816E-03 O_TOT= -0.1849816E-03 <-- DLTA
 ------------------------------------------------------------------------------
 Cycle:     10
  WF centre and spread    1  (  1.905000,  1.905000,  1.905000 )     0.51458864
  WF centre and spread    2  (  1.905000,  1.905000,  1.905000 )     0.63901762
  WF centre and spread    3  (  1.905000,  1.905000,  1.905000 )     0.63901762
  WF centre and spread    4  (  1.905000,  1.905000,  1.905000 )     0.51458997
  WF centre and spread    5  (  1.905000,  1.905000,  1.905000 )     0.63901759
  WF centre and spread    6  (  0.000000,  1.905000,  1.905000 )     0.98180433
  WF centre and spread    7  (  0.000000,  1.905000,  1.905000 )     0.73083005
  WF centre and spread    8  ( -0.000000,  1.905000,  1.905000 )     0.98180381
  WF centre and spread    9  (  1.905000, -0.000000,  1.905000 )     0.98180433
  WF centre and spread   10  (  1.905000,  0.000000,  1.905000 )     0.98180381
  WF centre and spread   11  (  1.905000,  0.000000,  1.905000 )     0.73083005
  WF centre and spread   12  (  1.905000,  1.905000,  0.000000 )     0.73084863
  WF centre and spread   13  (  1.905000,  1.905000,  0.000000 )     0.98180405
  WF centre and spread   14  (  1.905000,  1.905000, -0.000000 )     0.98180405
  Sum of centres and spreads ( 20.955000, 20.955000, 20.955000 )    11.02956454

     10    -0.597E-04     0.0081402795       11.0295645380       0.57  <-- CONV
        O_D=      0.0000000 O_OD=      0.1996592 O_TOT=     11.0295645 <-- SPRD
 Delta: O_D= -0.2277188E-16 O_OD= -0.5967430E-04 O_TOT= -0.5967430E-04 <-- DLTA
 ------------------------------------------------------------------------------
 Cycle:     11
  WF centre and spread    1  (  1.905000,  1.905000,  1.905000 )     0.51471395
  WF centre and spread    2  (  1.905000,  1.905000,  1.905000 )     0.63909237
  WF centre and spread    3  (  1.905000,  1.905000,  1.905000 )     0.63909237
  WF centre and spread    4  (  1.905000,  1.905000,  1.905000 )     0.51471496
  WF centre and spread    5  (  1.905000,  1.905000,  1.905000 )     0.63909235
  WF centre and spread    6  (  0.000000,  1.905000,  1.905000 )     0.98176169
  WF centre and spread    7  (  0.000000,  1.905000,  1.905000 )     0.73074527
  WF centre and spread    8  ( -0.000000,  1.905000,  1.905000 )     0.98176115
  WF centre and spread    9  (  1.905000, -0.000000,  1.905000 )     0.98176169
  WF centre and spread   10  (  1.905000,  0.000000,  1.905000 )     0.98176115
  WF centre and spread   11  (  1.905000,  0.000000,  1.905000 )     0.73074527
  WF centre and spread   12  (  1.905000,  1.905000,  0.000000 )     0.73076125
  WF centre and spread   13  (  1.905000,  1.905000,  0.000000 )     0.98176141
  WF centre and spread   14  (  1.905000,  1.905000, -0.000000 )     0.98176141
  Sum of centres and spreads ( 20.955000, 20.955000, 20.955000 )    11.02952628

     11    -0.383E-04     0.0055512950       11.0295262827       0.61  <-- CONV
        O_D=      0.0000000 O_OD=      0.1996209 O_TOT=     11.0295263 <-- SPRD
 Delta: O_D=  0.3740408E-16 O_OD= -0.3825531E-04 O_TOT= -0.3825531E-04 <-- DLTA
 ------------------------------------------------------------------------------
 Cycle:     12
  WF centre and spread    1  (  1.905000,  1.905000,  1.905000 )     0.51484835
  WF centre and spread    2  (  1.905000,  1.905000,  1.905000 )     0.63916001
  WF centre and spread    3  (  1.905000,  1.905000,  1.905000 )     0.63916001
  WF centre and spread    4  (  1.905000,  1.905000,  1.905000 )     0.51484908
  WF centre and spread    5  (  1.905000,  1.905000,  1.905000 )     0.63915999
  WF centre and spread    6  (  0.000000,  1.905000,  1.905000 )     0.98172326
  WF centre and spread    7  (  0.000000,  1.905000,  1.905000 )     0.73065651
  WF centre and spread    8  ( -0.000000,  1.905000,  1.905000 )     0.98172269
  WF centre and spread    9  (  1.905000, -0.000000,  1.905000 )     0.98172326
  WF centre and spread   10  (  1.905000,  0.000000,  1.905000 )     0.98172269
  WF centre and spread   11  (  1.905000,  0.000000,  1.905000 )     0.73065651
  WF centre and spread   12  (  1.905000,  1.905000,  0.000000 )     0.73067028
  WF centre and spread   13  (  1.905000,  1.905000,  0.000000 )     0.98172297
  WF centre and spread   14  (  1.905000,  1.905000, -0.000000 )     0.98172297
  Sum of centres and spreads ( 20.955000, 20.955000, 20.955000 )    11.02949856

     12    -0.277E-04     0.0051122894       11.0294985593       0.65  <-- CONV
        O_D=      0.0000000 O_OD=      0.1995932 O_TOT=     11.0294986 <-- SPRD
 Delta: O_D= -0.3182679E-16 O_OD= -0.2772341E-04 O_TOT= -0.2772341E-04 <-- DLTA
 ------------------------------------------------------------------------------
 Cycle:     13
  WF centre and spread    1  (  1.905000,  1.905000,  1.905000 )     0.51487373
  WF centre and spread    2  (  1.905000,  1.905000,  1.905000 )     0.63915631
  WF centre and spread    3  (  1.905000,  1.905000,  1.905000 )     0.63915631
  WF centre and spread    4  (  1.905000,  1.905000,  1.905000 )     0.51487450
  WF centre and spread    5  (  1.905000,  1.905000,  1.905000 )     0.63915629
  WF centre and spread    6  (  0.000000,  1.905000,  1.905000 )     0.98172377
  WF centre and spread    7  (  0.000000,  1.905000,  1.905000 )     0.73063812
  WF centre and spread    8  ( -0.000000,  1.905000,  1.905000 )     0.98172320
  WF centre and spread    9  (  1.905000, -0.000000,  1.905000 )     0.98172377
  WF centre and spread   10  (  1.905000,  0.000000,  1.905000 )     0.98172320
  WF centre and spread   11  (  1.905000,  0.000000,  1.905000 )     0.73063812
  WF centre and spread   12  (  1.905000,  1.905000,  0.000000 )     0.73065190
  WF centre and spread   13  (  1.905000,  1.905000,  0.000000 )     0.98172348
  WF centre and spread   14  (  1.905000,  1.905000, -0.000000 )     0.98172348
  Sum of centres and spreads ( 20.955000, 20.955000, 20.955000 )    11.02948620

     13    -0.124E-04     0.0034951350       11.0294861973       0.69  <-- CONV
        O_D=      0.0000000 O_OD=      0.1995809 O_TOT=     11.0294862 <-- SPRD
 Delta: O_D=  0.1844183E-15 O_OD= -0.1236196E-04 O_TOT= -0.1236196E-04 <-- DLTA
 ------------------------------------------------------------------------------
 Cycle:     14
  WF centre and spread    1  (  1.905000,  1.905000,  1.905000 )     0.51494497
  WF centre and spread    2  (  1.905000,  1.905000,  1.905000 )     0.63915448
  WF centre and spread    3  (  1.905000,  1.905000,  1.905000 )     0.63915448
  WF centre and spread    4  (  1.905000,  1.905000,  1.905000 )     0.51494583
  WF centre and spread    5  (  1.905000,  1.905000,  1.905000 )     0.63915446
  WF centre and spread    6  (  0.000000,  1.905000,  1.905000 )     0.98172280
  WF centre and spread    7  (  0.000000,  1.905000,  1.905000 )     0.73058954
  WF centre and spread    8  ( -0.000000,  1.905000,  1.905000 )     0.98172223
  WF centre and spread    9  (  1.905000, -0.000000,  1.905000 )     0.98172280
[...]
  WF centre and spread    3  (  1.905000,  1.905000,  1.905000 )     0.63927668
  WF centre and spread    4  (  1.905000,  1.905000,  1.905000 )     0.51535753
  WF centre and spread    5  (  1.905000,  1.905000,  1.905000 )     0.63927666
  WF centre and spread    6  (  0.000000,  1.905000,  1.905000 )     0.98165785
  WF centre and spread    7  (  0.000000,  1.905000,  1.905000 )     0.73031342
  WF centre and spread    8  ( -0.000000,  1.905000,  1.905000 )     0.98165727
  WF centre and spread    9  (  1.905000, -0.000000,  1.905000 )     0.98165785
  WF centre and spread   10  (  1.905000,  0.000000,  1.905000 )     0.98165727
  WF centre and spread   11  (  1.905000,  0.000000,  1.905000 )     0.73031342
  WF centre and spread   12  (  1.905000,  1.905000,  0.000000 )     0.73032205
  WF centre and spread   13  (  1.905000,  1.905000,  0.000000 )     0.98165751
  WF centre and spread   14  (  1.905000,  1.905000, -0.000000 )     0.98165751
  Sum of centres and spreads ( 20.955000, 20.955000, 20.955000 )    11.02943842

     51    -0.996E-11     0.0000036704       11.0294384202       2.05  <-- CONV
        O_D=      0.0000000 O_OD=      0.1995331 O_TOT=     11.0294384 <-- SPRD
 Delta: O_D= -0.2230295E-14 O_OD= -0.9956369E-11 O_TOT= -0.9960033E-11 <-- DLTA
 ------------------------------------------------------------------------------
 Cycle:     52
  WF centre and spread    1  (  1.905000,  1.905000,  1.905000 )     0.51535672
  WF centre and spread    2  (  1.905000,  1.905000,  1.905000 )     0.63927668
  WF centre and spread    3  (  1.905000,  1.905000,  1.905000 )     0.63927668
  WF centre and spread    4  (  1.905000,  1.905000,  1.905000 )     0.51535753
  WF centre and spread    5  (  1.905000,  1.905000,  1.905000 )     0.63927666
  WF centre and spread    6  (  0.000000,  1.905000,  1.905000 )     0.98165785
  WF centre and spread    7  (  0.000000,  1.905000,  1.905000 )     0.73031342
  WF centre and spread    8  ( -0.000000,  1.905000,  1.905000 )     0.98165727
  WF centre and spread    9  (  1.905000, -0.000000,  1.905000 )     0.98165785
  WF centre and spread   10  (  1.905000,  0.000000,  1.905000 )     0.98165727
  WF centre and spread   11  (  1.905000,  0.000000,  1.905000 )     0.73031342
  WF centre and spread   12  (  1.905000,  1.905000,  0.000000 )     0.73032205
  WF centre and spread   13  (  1.905000,  1.905000,  0.000000 )     0.98165751
  WF centre and spread   14  (  1.905000,  1.905000, -0.000000 )     0.98165751
  Sum of centres and spreads ( 20.955000, 20.955000, 20.955000 )    11.02943842

     52    -0.128E-12     0.0000021546       11.0294384202       2.08  <-- CONV
        O_D=      0.0000000 O_OD=      0.1995331 O_TOT=     11.0294384 <-- SPRD
 Delta: O_D=  0.2678636E-16 O_OD= -0.1278977E-12 O_TOT= -0.1278977E-12 <-- DLTA
 ------------------------------------------------------------------------------
 Cycle:     53
  WF centre and spread    1  (  1.905000,  1.905000,  1.905000 )     0.51535672
  WF centre and spread    2  (  1.905000,  1.905000,  1.905000 )     0.63927668
  WF centre and spread    3  (  1.905000,  1.905000,  1.905000 )     0.63927668
  WF centre and spread    4  (  1.905000,  1.905000,  1.905000 )     0.51535753
  WF centre and spread    5  (  1.905000,  1.905000,  1.905000 )     0.63927666
  WF centre and spread    6  (  0.000000,  1.905000,  1.905000 )     0.98165785
  WF centre and spread    7  (  0.000000,  1.905000,  1.905000 )     0.73031342
  WF centre and spread    8  ( -0.000000,  1.905000,  1.905000 )     0.98165727
  WF centre and spread    9  (  1.905000, -0.000000,  1.905000 )     0.98165785
  WF centre and spread   10  (  1.905000,  0.000000,  1.905000 )     0.98165727
  WF centre and spread   11  (  1.905000,  0.000000,  1.905000 )     0.73031342
  WF centre and spread   12  (  1.905000,  1.905000,  0.000000 )     0.73032205
  WF centre and spread   13  (  1.905000,  1.905000,  0.000000 )     0.98165751
  WF centre and spread   14  (  1.905000,  1.905000, -0.000000 )     0.98165751
  Sum of centres and spreads ( 20.955000, 20.955000, 20.955000 )    11.02943842

     53    -0.334E-12     0.0000021483       11.0294384202       2.11  <-- CONV
        O_D=      0.0000000 O_OD=      0.1995331 O_TOT=     11.0294384 <-- SPRD
 Delta: O_D= -0.1636106E-15 O_OD= -0.3339273E-12 O_TOT= -0.3339551E-12 <-- DLTA
 ------------------------------------------------------------------------------
 Cycle:     54
  WF centre and spread    1  (  1.905000,  1.905000,  1.905000 )     0.51535672
  WF centre and spread    2  (  1.905000,  1.905000,  1.905000 )     0.63927668
  WF centre and spread    3  (  1.905000,  1.905000,  1.905000 )     0.63927668
  WF centre and spread    4  (  1.905000,  1.905000,  1.905000 )     0.51535753
  WF centre and spread    5  (  1.905000,  1.905000,  1.905000 )     0.63927666
  WF centre and spread    6  (  0.000000,  1.905000,  1.905000 )     0.98165785
  WF centre and spread    7  (  0.000000,  1.905000,  1.905000 )     0.73031342
  WF centre and spread    8  ( -0.000000,  1.905000,  1.905000 )     0.98165727
  WF centre and spread    9  (  1.905000, -0.000000,  1.905000 )     0.98165785
  WF centre and spread   10  (  1.905000,  0.000000,  1.905000 )     0.98165727
  WF centre and spread   11  (  1.905000,  0.000000,  1.905000 )     0.73031342
  WF centre and spread   12  (  1.905000,  1.905000,  0.000000 )     0.73032204
  WF centre and spread   13  (  1.905000,  1.905000,  0.000000 )     0.98165751
  WF centre and spread   14  (  1.905000,  1.905000, -0.000000 )     0.98165751
  Sum of centres and spreads ( 20.955000, 20.955000, 20.955000 )    11.02943842

     54    -0.117E-12     0.0000021153       11.0294384202       2.14  <-- CONV
        O_D=      0.0000000 O_OD=      0.1995331 O_TOT=     11.0294384 <-- SPRD
 Delta: O_D= -0.4652299E-16 O_OD= -0.1167122E-12 O_TOT= -0.1172396E-12 <-- DLTA
 ------------------------------------------------------------------------------
 Cycle:     55
  WF centre and spread    1  (  1.905000,  1.905000,  1.905000 )     0.51535673
  WF centre and spread    2  (  1.905000,  1.905000,  1.905000 )     0.63927668
  WF centre and spread    3  (  1.905000,  1.905000,  1.905000 )     0.63927668
  WF centre and spread    4  (  1.905000,  1.905000,  1.905000 )     0.51535753
  WF centre and spread    5  (  1.905000,  1.905000,  1.905000 )     0.63927666
  WF centre and spread    6  (  0.000000,  1.905000,  1.905000 )     0.98165785
  WF centre and spread    7  (  0.000000,  1.905000,  1.905000 )     0.73031341
  WF centre and spread    8  ( -0.000000,  1.905000,  1.905000 )     0.98165727
  WF centre and spread    9  (  1.905000, -0.000000,  1.905000 )     0.98165785
  WF centre and spread   10  (  1.905000,  0.000000,  1.905000 )     0.98165727
  WF centre and spread   11  (  1.905000,  0.000000,  1.905000 )     0.73031341
  WF centre and spread   12  (  1.905000,  1.905000,  0.000000 )     0.73032204
  WF centre and spread   13  (  1.905000,  1.905000,  0.000000 )     0.98165751
  WF centre and spread   14  (  1.905000,  1.905000, -0.000000 )     0.98165751
  Sum of centres and spreads ( 20.955000, 20.955000, 20.955000 )    11.02943842

     55    -0.172E-12     0.0000021052       11.0294384202       2.16  <-- CONV
        O_D=      0.0000000 O_OD=      0.1995331 O_TOT=     11.0294384 <-- SPRD
 Delta: O_D= -0.6419865E-16 O_OD= -0.1728062E-12 O_TOT= -0.1723066E-12 <-- DLTA
 ------------------------------------------------------------------------------
 Cycle:     56
  WF centre and spread    1  (  1.905000,  1.905000,  1.905000 )     0.51535675
  WF centre and spread    2  (  1.905000,  1.905000,  1.905000 )     0.63927668
  WF centre and spread    3  (  1.905000,  1.905000,  1.905000 )     0.63927668
  WF centre and spread    4  (  1.905000,  1.905000,  1.905000 )     0.51535755
  WF centre and spread    5  (  1.905000,  1.905000,  1.905000 )     0.63927666
  WF centre and spread    6  (  0.000000,  1.905000,  1.905000 )     0.98165785
  WF centre and spread    7  (  0.000000,  1.905000,  1.905000 )     0.73031340
  WF centre and spread    8  ( -0.000000,  1.905000,  1.905000 )     0.98165727
  WF centre and spread    9  (  1.905000, -0.000000,  1.905000 )     0.98165785
  WF centre and spread   10  (  1.905000,  0.000000,  1.905000 )     0.98165727
  WF centre and spread   11  (  1.905000,  0.000000,  1.905000 )     0.73031340
  WF centre and spread   12  (  1.905000,  1.905000,  0.000000 )     0.73032203
  WF centre and spread   13  (  1.905000,  1.905000,  0.000000 )     0.98165751
  WF centre and spread   14  (  1.905000,  1.905000, -0.000000 )     0.98165751
  Sum of centres and spreads ( 20.955000, 20.955000, 20.955000 )    11.02943842

     56    -0.478E-11     0.0000020906       11.0294384202       2.20  <-- CONV
        O_D=      0.0000000 O_OD=      0.1995331 O_TOT=     11.0294384 <-- SPRD
 Delta: O_D= -0.1506068E-16 O_OD= -0.4782869E-11 O_TOT= -0.4783729E-11 <-- DLTA
 ------------------------------------------------------------------------------
 Cycle:     57
  WF centre and spread    1  (  1.905000,  1.905000,  1.905000 )     0.51535675
  WF centre and spread    2  (  1.905000,  1.905000,  1.905000 )     0.63927668
  WF centre and spread    3  (  1.905000,  1.905000,  1.905000 )     0.63927668
  WF centre and spread    4  (  1.905000,  1.905000,  1.905000 )     0.51535755
  WF centre and spread    5  (  1.905000,  1.905000,  1.905000 )     0.63927666
  WF centre and spread    6  (  0.000000,  1.905000,  1.905000 )     0.98165785
  WF centre and spread    7  (  0.000000,  1.905000,  1.905000 )     0.73031340
  WF centre and spread    8  ( -0.000000,  1.905000,  1.905000 )     0.98165727
  WF centre and spread    9  (  1.905000, -0.000000,  1.905000 )     0.98165785
  WF centre and spread   10  (  1.905000,  0.000000,  1.905000 )     0.98165727
  WF centre and spread   11  (  1.905000,  0.000000,  1.905000 )     0.73031340
  WF centre and spread   12  (  1.905000,  1.905000,  0.000000 )     0.73032203
  WF centre and spread   13  (  1.905000,  1.905000,  0.000000 )     0.98165751
  WF centre and spread   14  (  1.905000,  1.905000, -0.000000 )     0.98165751
  Sum of centres and spreads ( 20.955000, 20.955000, 20.955000 )    11.02943842

     57    -0.171E-12     0.0000018409       11.0294384202       2.22  <-- CONV
        O_D=      0.0000000 O_OD=      0.1995331 O_TOT=     11.0294384 <-- SPRD
 Delta: O_D=  0.4401208E-16 O_OD= -0.1706690E-12 O_TOT= -0.1705303E-12 <-- DLTA
 ------------------------------------------------------------------------------
 Cycle:     58
  WF centre and spread    1  (  1.905000,  1.905000,  1.905000 )     0.51535675
  WF centre and spread    2  (  1.905000,  1.905000,  1.905000 )     0.63927668
  WF centre and spread    3  (  1.905000,  1.905000,  1.905000 )     0.63927668
  WF centre and spread    4  (  1.905000,  1.905000,  1.905000 )     0.51535756
  WF centre and spread    5  (  1.905000,  1.905000,  1.905000 )     0.63927666
  WF centre and spread    6  (  0.000000,  1.905000,  1.905000 )     0.98165785
  WF centre and spread    7  (  0.000000,  1.905000,  1.905000 )     0.73031340
  WF centre and spread    8  ( -0.000000,  1.905000,  1.905000 )     0.98165727
  WF centre and spread    9  (  1.905000, -0.000000,  1.905000 )     0.98165785
  WF centre and spread   10  (  1.905000,  0.000000,  1.905000 )     0.98165727
  WF centre and spread   11  (  1.905000,  0.000000,  1.905000 )     0.73031340
  WF centre and spread   12  (  1.905000,  1.905000,  0.000000 )     0.73032203
  WF centre and spread   13  (  1.905000,  1.905000,  0.000000 )     0.98165751
  WF centre and spread   14  (  1.905000,  1.905000, -0.000000 )     0.98165751
  Sum of centres and spreads ( 20.955000, 20.955000, 20.955000 )    11.02943842

     58    -0.211E-12     0.0000018391       11.0294384202       2.24  <-- CONV
        O_D=      0.0000000 O_OD=      0.1995331 O_TOT=     11.0294384 <-- SPRD
 Delta: O_D=  0.2552050E-16 O_OD= -0.2115808E-12 O_TOT= -0.2113865E-12 <-- DLTA
 ------------------------------------------------------------------------------
 Cycle:     59
  WF centre and spread    1  (  1.905000,  1.905000,  1.905000 )     0.51535675
  WF centre and spread    2  (  1.905000,  1.905000,  1.905000 )     0.63927668
  WF centre and spread    3  (  1.905000,  1.905000,  1.905000 )     0.63927668
  WF centre and spread    4  (  1.905000,  1.905000,  1.905000 )     0.51535756
  WF centre and spread    5  (  1.905000,  1.905000,  1.905000 )     0.63927666
  WF centre and spread    6  (  0.000000,  1.905000,  1.905000 )     0.98165785
  WF centre and spread    7  (  0.000000,  1.905000,  1.905000 )     0.73031340
  WF centre and spread    8  ( -0.000000,  1.905000,  1.905000 )     0.98165727
  WF centre and spread    9  (  1.905000, -0.000000,  1.905000 )     0.98165785
  WF centre and spread   10  (  1.905000,  0.000000,  1.905000 )     0.98165727
  WF centre and spread   11  (  1.905000,  0.000000,  1.905000 )     0.73031340
  WF centre and spread   12  (  1.905000,  1.905000,  0.000000 )     0.73032203
  WF centre and spread   13  (  1.905000,  1.905000,  0.000000 )     0.98165751
  WF centre and spread   14  (  1.905000,  1.905000, -0.000000 )     0.98165751
  Sum of centres and spreads ( 20.955000, 20.955000, 20.955000 )    11.02943842

     59    -0.409E-13     0.0000018356       11.0294384202       2.26  <-- CONV
        O_D=      0.0000000 O_OD=      0.1995331 O_TOT=     11.0294384 <-- SPRD
 Delta: O_D= -0.2041049E-16 O_OD= -0.4143907E-13 O_TOT= -0.4085621E-13 <-- DLTA
 ------------------------------------------------------------------------------
 Cycle:     60
  WF centre and spread    1  (  1.905000,  1.905000,  1.905000 )     0.51535675
  WF centre and spread    2  (  1.905000,  1.905000,  1.905000 )     0.63927668
  WF centre and spread    3  (  1.905000,  1.905000,  1.905000 )     0.63927668
  WF centre and spread    4  (  1.905000,  1.905000,  1.905000 )     0.51535756
  WF centre and spread    5  (  1.905000,  1.905000,  1.905000 )     0.63927666
  WF centre and spread    6  (  0.000000,  1.905000,  1.905000 )     0.98165785
  WF centre and spread    7  (  0.000000,  1.905000,  1.905000 )     0.73031340
  WF centre and spread    8  ( -0.000000,  1.905000,  1.905000 )     0.98165727
  WF centre and spread    9  (  1.905000, -0.000000,  1.905000 )     0.98165785
  WF centre and spread   10  (  1.905000,  0.000000,  1.905000 )     0.98165727
  WF centre and spread   11  (  1.905000,  0.000000,  1.905000 )     0.73031340
  WF centre and spread   12  (  1.905000,  1.905000,  0.000000 )     0.73032203
  WF centre and spread   13  (  1.905000,  1.905000,  0.000000 )     0.98165751
  WF centre and spread   14  (  1.905000,  1.905000, -0.000000 )     0.98165751
  Sum of centres and spreads ( 20.955000, 20.955000, 20.955000 )    11.02943842

     60    -0.835E-13     0.0000018335       11.0294384202       2.28  <-- CONV
        O_D=      0.0000000 O_OD=      0.1995331 O_TOT=     11.0294384 <-- SPRD
 Delta: O_D= -0.3927092E-16 O_OD= -0.8296142E-13 O_TOT= -0.8348877E-13 <-- DLTA
 ------------------------------------------------------------------------------
 Cycle:     61
  WF centre and spread    1  (  1.905000,  1.905000,  1.905000 )     0.51535675
  WF centre and spread    2  (  1.905000,  1.905000,  1.905000 )     0.63927668
  WF centre and spread    3  (  1.905000,  1.905000,  1.905000 )     0.63927668
  WF centre and spread    4  (  1.905000,  1.905000,  1.905000 )     0.51535756
  WF centre and spread    5  (  1.905000,  1.905000,  1.905000 )     0.63927666
  WF centre and spread    6  (  0.000000,  1.905000,  1.905000 )     0.98165785
  WF centre and spread    7  (  0.000000,  1.905000,  1.905000 )     0.73031340
  WF centre and spread    8  ( -0.000000,  1.905000,  1.905000 )     0.98165727
  WF centre and spread    9  (  1.905000, -0.000000,  1.905000 )     0.98165785
  WF centre and spread   10  (  1.905000,  0.000000,  1.905000 )     0.98165727
  WF centre and spread   11  (  1.905000,  0.000000,  1.905000 )     0.73031340
  WF centre and spread   12  (  1.905000,  1.905000,  0.000000 )     0.73032203
  WF centre and spread   13  (  1.905000,  1.905000,  0.000000 )     0.98165751
  WF centre and spread   14  (  1.905000,  1.905000, -0.000000 )     0.98165751
  Sum of centres and spreads ( 20.955000, 20.955000, 20.955000 )    11.02943842

     61    -0.128E-12     0.0000018293       11.0294384202       2.30  <-- CONV
        O_D=      0.0000000 O_OD=      0.1995331 O_TOT=     11.0294384 <-- SPRD
 Delta: O_D= -0.5511804E-16 O_OD= -0.1275091E-12 O_TOT= -0.1278977E-12 <-- DLTA
 ------------------------------------------------------------------------------

             <<<     Delta < 1.000E-12  over  5 iterations     >>>
             <<< Wannierisation convergence criteria satisfied >>>

 Final State
  WF centre and spread    1  (  1.905000,  1.905000,  1.905000 )     0.51535675
  WF centre and spread    2  (  1.905000,  1.905000,  1.905000 )     0.63927668
  WF centre and spread    3  (  1.905000,  1.905000,  1.905000 )     0.63927668
  WF centre and spread    4  (  1.905000,  1.905000,  1.905000 )     0.51535756
  WF centre and spread    5  (  1.905000,  1.905000,  1.905000 )     0.63927666
  WF centre and spread    6  (  0.000000,  1.905000,  1.905000 )     0.98165785
  WF centre and spread    7  (  0.000000,  1.905000,  1.905000 )     0.73031340
  WF centre and spread    8  ( -0.000000,  1.905000,  1.905000 )     0.98165727
  WF centre and spread    9  (  1.905000, -0.000000,  1.905000 )     0.98165785
  WF centre and spread   10  (  1.905000,  0.000000,  1.905000 )     0.98165727
  WF centre and spread   11  (  1.905000,  0.000000,  1.905000 )     0.73031340
  WF centre and spread   12  (  1.905000,  1.905000,  0.000000 )     0.73032203
  WF centre and spread   13  (  1.905000,  1.905000,  0.000000 )     0.98165751
  WF centre and spread   14  (  1.905000,  1.905000, -0.000000 )     0.98165751
  Sum of centres and spreads ( 20.955000, 20.955000, 20.955000 )    11.02943842

         Spreads (Ang^2)       Omega I      =    10.829905342
        ================       Omega D      =     0.000000000
                               Omega OD     =     0.199533078
    Final Spread (Ang^2)       Omega Total  =    11.029438420
 ------------------------------------------------------------------------------

 Wannier centres written to file SrMnO3_down_centres.xyz
 Time for wannierise            2.124 (sec)

 Writing checkpoint file SrMnO3_down.chk... done

 *---------------------------------------------------------------------------*
 |                               PLOTTING                                    |
 *---------------------------------------------------------------------------*


 Calculating interpolated band-structure

 Time to calculate interpolated band structure       0.569 (sec)

 Time for plotting              0.768 (sec)
 Total Execution Time           3.681 (sec)

 *===========================================================================*
 |                             TIMING INFORMATION                            |
 *===========================================================================*
 |    Tag                                                Ncalls      Time (s)|
 |---------------------------------------------------------------------------|
 |kmesh: get                                        :         1         0.066|
 |overlap: allocate                                 :         1         0.000|
 |overlap: read                                     :         1         0.466|
 |dis: main                                         :         1         0.217|
 |wann: main                                        :         1         2.124|
 |plot: main                                        :         1         0.768|
 *---------------------------------------------------------------------------*

 All done: wannier90 exiting
