<UPF version="2.0.1">
<PP_INFO>
Generated by new atomic code, or converted to UPF format
Author:
Generation date:
Pseudopotential type: US
Element: Fe
Functional:  SLA  PZ   NOGX NOGC
Suggested minimum cutoff for wavefunctions:   0. Ry
Suggested minimum cutoff for charge density:   0. Ry
The Pseudo was generated with a Scalar-Relativistic Calculation
L component and cutoff radius for Local Potential:  0   0.0000
Valence configuration:
nl pn  l   occ       Rcut    Rcut US       E pseu
4S  0  0  1.00      2.000      2.200     0.000000
3D  0  2  7.00      2.000      2.200     0.000000
Generation configuration: not available.
</PP_INFO>
<!--
END OF HUMAN READABLE SECTION
-->
<PP_HEADER 
wfc_cutoff="0.000000000000e0"
l_local="0"
core_correction="true"
author=""
is_coulomb="false"
z_valence="8.000000000000e0"
l_max="2"
is_paw="false"
number_of_wfc="2"
l_max_rho="0"
generated="Generated by new atomic code, or converted to UPF format"
mesh_size="957"
has_wfc="false"
has_so="false"
relativistic="scalar"
has_gipaw="false"
date=""
element="Fe"
number_of_proj="6"
rho_cutoff="0.000000000000e0"
functional=" SLA  PZ   NOGX NOGC"
total_psenergy="-4.149093103800e1"
is_ultrasoft="true"
comment=""
pseudo_type="US"
paw_as_gipaw="false"
/>
<PP_MESH dx="1.500000000000e-2" mesh="957" xmin="-6.999999999999e0" rmax="5.925815821790e1" zmesh="2.600000000000e1">
<PP_R>
3.507238329060000e-5 3.560243448550000e-5 3.614049637830000e-5 3.668669003530000e-5
3.724113835240000e-5 3.780396608260000e-5 3.837529986480001e-5 3.895526825130000e-5
3.954400173750001e-5 4.014163279090001e-5 4.074829588110001e-5 4.136412750970001e-5
4.198926624150000e-5 4.262385273540001e-5 4.326802977600000e-5 4.392194230579999e-5
4.458573745790000e-5 4.525956458900000e-5 4.594357531310000e-5 4.663792353550001e-5
4.734276548740000e-5 4.805825976130000e-5 4.878456734640001e-5 4.952185166500000e-5
5.027027860910001e-5 5.103001657799999e-5 5.180123651580000e-5 5.258411195050002e-5
5.337881903220000e-5 5.418553657330001e-5 5.500444608880000e-5 5.583573183670001e-5
5.667958085980001e-5 5.753618302770000e-5 5.840573107949999e-5 5.928842066730001e-5
6.018445039980001e-5 6.109402188750001e-5 6.201733978790001e-5 6.295461185150000e-5
6.390604896820000e-5 6.487186521559998e-5 6.585227790640000e-5 6.684750763750000e-5
6.785777833980000e-5 6.888331732849999e-5 6.992435535419999e-5 7.098112665490001e-5
7.205386900860001e-5 7.314282378670001e-5 7.424823600880002e-5 7.537035439719999e-5
7.650943143330000e-5 7.766572341420000e-5 7.883949051060000e-5 8.003099682500000e-5
8.124051045130001e-5 8.246830353509999e-5 8.371465233520002e-5 8.497983728520000e-5
8.626414305710000e-5 8.756785862520001e-5 8.889127733090001e-5 9.023469694889998e-5
9.159841975450000e-5 9.298275259090000e-5 9.438800693899998e-5 9.581449898680001e-5
9.726254970109999e-5 9.873248489940000e-5 1.002246353230000e-4 1.017393367130000e-4
1.032769298830000e-4 1.048377607970000e-4 1.064221806510000e-4 1.080305459430000e-4
1.096632185650000e-4 1.113205658730000e-4 1.130029607780000e-4 1.147107818260000e-4
1.164444132840000e-4 1.182042452260000e-4 1.199906736220000e-4 1.218041004250000e-4
1.236449336660000e-4 1.255135875380000e-4 1.274104824960000e-4 1.293360453510000e-4
1.312907093610000e-4 1.332749143350000e-4 1.352891067270000e-4 1.373337397390000e-4
1.394092734220000e-4 1.415161747790000e-4 1.436549178730000e-4 1.458259839290000e-4
1.480298614470000e-4 1.502670463080000e-4 1.525380418880000e-4 1.548433591720000e-4
1.571835168640000e-4 1.595590415110000e-4 1.619704676150000e-4 1.644183377580000e-4
1.669032027210000e-4 1.694256216080000e-4 1.719861619750000e-4 1.745853999540000e-4
1.772239203840000e-4 1.799023169450000e-4 1.826211922850000e-4 1.853811581640000e-4
1.881828355860000e-4 1.910268549400000e-4 1.939138561420000e-4 1.968444887800000e-4
1.998194122580000e-4 2.028392959470000e-4 2.059048193330000e-4 2.090166721720000e-4
2.121755546450000e-4 2.153821775120000e-4 2.186372622780000e-4 2.219415413500000e-4
2.252957582050000e-4 2.287006675570000e-4 2.321570355230000e-4 2.356656398020000e-4
2.392272698440000e-4 2.428427270310000e-4 2.465128248560000e-4 2.502383891070000e-4
2.540202580510000e-4 2.578592826240000e-4 2.617563266240000e-4 2.657122669020000e-4
2.697279935610000e-4 2.738044101560000e-4 2.779424338990000e-4 2.821429958620000e-4
2.864070411889999e-4 2.907355293090000e-4 2.951294341500001e-4 2.995897443580000e-4
3.041174635230000e-4 3.087136104000000e-4 3.133792191420000e-4 3.181153395299999e-4
3.229230372110000e-4 3.278033939379999e-4 3.327575078120000e-4 3.377864935290000e-4
3.428914826320000e-4 3.480736237650000e-4 3.533340829320000e-4 3.586740437590000e-4
3.640947077580000e-4 3.695972946029999e-4 3.751830423980000e-4 3.808532079599999e-4
3.866090671010000e-4 3.924519149130000e-4 3.983830660620000e-4 4.044038550810000e-4
4.105156366739999e-4 4.167197860169999e-4 4.230176990690000e-4 4.294107928890000e-4
4.359005059490000e-4 4.424882984610000e-4 4.491756527080000e-4 4.559640733709999e-4
4.628550878740000e-4 4.698502467249999e-4 4.769511238630001e-4 4.841593170170000e-4
4.914764480590000e-4 4.989041633759999e-4 5.064441342339999e-4 5.140980571590000e-4
5.218676543150002e-4 5.297546738960000e-4 5.377608905130000e-4 5.458881055990000e-4
5.541381478120000e-4 5.625128734460000e-4 5.710141668489999e-4 5.796439408500000e-4
5.884041371819999e-4 5.972967269270001e-4 6.063237109560000e-4 6.154871203779999e-4
6.247890169980000e-4 6.342314937830000e-4 6.438166753300000e-4 6.535467183450000e-4
6.634238121290002e-4 6.734501790690000e-4 6.836280751410001e-4 6.939597904130000e-4
7.044476495670001e-4 7.150940124130000e-4 7.259012744290000e-4 7.368718672940000e-4
7.480082594380001e-4 7.593129565960000e-4 7.707885023720000e-4 7.824374788139999e-4
7.942625069889999e-4 8.062662475790001e-4 8.184514014760001e-4 8.308207103910002e-4
8.433769574719999e-4 8.561229679249999e-4 8.690616096589999e-4 8.821957939199999e-4
8.955284759580001e-4 9.090626556799998e-4 9.228013783350001e-4 9.367477351929999e-4
9.509048642440000e-4 9.652759509010000e-4 9.798642287189999e-4 9.946729801220002e-4
1.009705537140000e-3 1.024965282170000e-3 1.040455648710000e-3 1.056180122150000e-3
1.072142240590000e-3 1.088345595550000e-3 1.104793832860000e-3 1.121490653440000e-3
1.138439814150000e-3 1.155645128620000e-3 1.173110468120000e-3 1.190839762430000e-3
1.208837000710000e-3 1.227106232410000e-3 1.245651568190000e-3 1.264477180830000e-3
1.283587306170000e-3 1.302986244060000e-3 1.322678359360000e-3 1.342668082880000e-3
1.362959912370000e-3 1.383558413590000e-3 1.404468221300000e-3 1.425694040280000e-3
1.447240646430000e-3 1.469112887830000e-3 1.491315685840000e-3 1.513854036160000e-3
1.536733010030000e-3 1.559957755300000e-3 1.583533497660000e-3 1.607465541730000e-3
1.631759272330000e-3 1.656420155650000e-3 1.681453740490000e-3 1.706865659520000e-3
1.732661630520000e-3 1.758847457700000e-3 1.785429032980000e-3 1.812412337320000e-3
1.839803442080000e-3 1.867608510380000e-3 1.895833798480000e-3 1.924485657180000e-3
1.953570533270000e-3 1.983094970970000e-3 2.013065613400000e-3 2.043489204090000e-3
2.074372588480000e-3 2.105722715440000e-3 2.137546638900000e-3 2.169851519380000e-3
2.202644625590000e-3 2.235933336150000e-3 2.269725141130000e-3 2.304027643850000e-3
2.338848562510000e-3 2.374195731960000e-3 2.410077105470000e-3 2.446500756490000e-3
2.483474880510000e-3 2.521007796850000e-3 2.559107950580000e-3 2.597783914390000e-3
2.637044390550000e-3 2.676898212820000e-3 2.717354348480000e-3 2.758421900330000e-3
2.800110108750000e-3 2.842428353750000e-3 2.885386157130000e-3 2.928993184560000e-3
2.973259247820000e-3 3.018194306950000e-3 3.063808472530000e-3 3.110112007950000e-3
3.157115331690000e-3 3.204829019700000e-3 3.253263807750000e-3 3.302430593890000e-3
3.352340440849999e-3 3.403004578540000e-3 3.454434406620000e-3 3.506641497020000e-3
3.559637596550000e-3 3.613434629560000e-3 3.668044700599999e-3 3.723480097170000e-3
3.779753292480001e-3 3.836876948220000e-3 3.894863917460000e-3 3.953727247510000e-3
4.013480182880000e-3 4.074136168210000e-3 4.135708851380000e-3 4.198212086480000e-3
4.261659937009999e-3 4.326066679010000e-3 4.391446804259999e-3 4.457815023569999e-3
4.525186270070000e-3 4.593575702570001e-3 4.662998708980001e-3 4.733470909769999e-3
4.805008161480000e-3 4.877626560310000e-3 4.951342445680000e-3 5.026172404000000e-3
5.102133272310000e-3 5.179242142130001e-3 5.257516363290000e-3 5.336973547810000e-3
5.417631573890000e-3 5.499508589930000e-3 5.582623018600000e-3 5.666993561010001e-3
5.752639200870000e-3 5.839579208819999e-3 5.927833146740000e-3 6.017420872110001e-3
6.108362542570001e-3 6.200678620380000e-3 6.294389877030000e-3 6.389517397960000e-3
6.486082587249999e-3 6.584107172500000e-3 6.683613209630001e-3 6.784623087940000e-3
6.887159535060000e-3 6.991245622130000e-3 7.096904768960000e-3 7.204160749310001e-3
7.313037696209999e-3 7.423560107450000e-3 7.535752851030000e-3 7.649641170799999e-3
7.765250692100000e-3 7.882607427570000e-3 8.001737782959999e-3 8.122668563110000e-3
8.245426977959999e-3 8.370040648659998e-3 8.496537613819999e-3 8.624946335790000e-3
8.755295707069999e-3 8.887615056820000e-3 9.021934157450000e-3 9.158283231330000e-3
9.296692957579999e-3 9.437194478959999e-3 9.579819408910000e-3 9.724599838640000e-3
9.871568344370001e-3 1.002075799460000e-2 1.017220235770000e-2 1.032593550920000e-2
1.048199203980000e-2 1.064040706280000e-2 1.080121622220000e-2 1.096445570090000e-2
1.113016222840000e-2 1.129837308940000e-2 1.146912613190000e-2 1.164245977620000e-2
1.181841302310000e-2 1.199702546280000e-2 1.217833728380000e-2 1.236238928210000e-2
1.254922287010000e-2 1.273888008620000e-2 1.293140360410000e-2 1.312683674230000e-2
1.332522347420000e-2 1.352660843760000e-2 1.373103694500000e-2 1.393855499360000e-2
1.414920927580000e-2 1.436304718990000e-2 1.458011685010000e-2 1.480046709820000e-2
1.502414751380000e-2 1.525120842600000e-2 1.548170092440000e-2 1.571567687080000e-2
1.595318891080000e-2 1.619429048570000e-2 1.643903584420000e-2 1.668748005510000e-2
1.693967901950000e-2 1.719568948310000e-2 1.745556904930000e-2 1.771937619230000e-2
1.798717026960000e-2 1.825901153620000e-2 1.853496115730000e-2 1.881508122290000e-2
1.909943476120000e-2 1.938808575290000e-2 1.968109914560000e-2 1.997854086870000e-2
2.028047784780000e-2 2.058697802000000e-2 2.089811034900000e-2 2.121394484110000e-2
2.153455256020000e-2 2.186000564450000e-2 2.219037732230000e-2 2.252574192860000e-2
2.286617492190000e-2 2.321175290100000e-2 2.356255362250000e-2 2.391865601790000e-2
2.428014021180000e-2 2.464708753970000e-2 2.501958056630000e-2 2.539770310400000e-2
2.578154023210000e-2 2.617117831560000e-2 2.656670502450000e-2 2.696820935420000e-2
2.737578164470000e-2 2.778951360160000e-2 2.820949831630000e-2 2.863583028720000e-2
2.906860544060000e-2 2.950792115290000e-2 2.995387627200000e-2 3.040657113960000e-2
3.086610761390000e-2 3.133258909270000e-2 3.180612053630000e-2 3.228680849110000e-2
3.277476111410000e-2 3.327008819660000e-2 3.377290118930000e-2 3.428331322720000e-2
3.480143915520000e-2 3.532739555390000e-2 3.586130076560000e-2 3.640327492130000e-2
3.695343996740000e-2 3.751191969340000e-2 3.807883975960000e-2 3.865432772540000e-2
3.923851307800000e-2 3.983152726150000e-2 4.043350370680000e-2 4.104457786090000e-2
4.166488721830000e-2 4.229457135100001e-2 4.293377194070000e-2 4.358263281030000e-2
4.424129995600000e-2 4.490992158099999e-2 4.558864812770000e-2 4.627763231260000e-2
4.697702916000001e-2 4.768699603720000e-2 4.840769268960000e-2 4.913928127710000e-2
4.988192641020000e-2 5.063579518720001e-2 5.140105723170000e-2 5.217788473100001e-2
5.296645247450000e-2 5.376693789319999e-2 5.457952109970000e-2 5.540438492880000e-2
5.624171497820000e-2 5.709169965080000e-2 5.795453019660000e-2 5.883040075629999e-2
5.971950840430001e-2 6.062205319360000e-2 6.153823820070000e-2 6.246826957090001e-2
6.341235656539999e-2 6.437071160760000e-2 6.534355033149999e-2 6.633109162990001e-2
6.733355770370000e-2 6.835117411210000e-2 6.938416982300000e-2 7.043277726480000e-2
7.149723237869999e-2 7.257777467150000e-2 7.367464726980000e-2 7.478809697450001e-2
7.591837431660000e-2 7.706573361309999e-2 7.823043302490000e-2 7.941273461410001e-2
8.061290440360001e-2 8.183121243670000e-2 8.306793283790000e-2 8.432334387440001e-2
8.559772801890000e-2 8.689137201350000e-2 8.820456693320001e-2 8.953760825270001e-2
9.089079591179999e-2 9.226443438330000e-2 9.365883274190001e-2 9.507430473300001e-2
9.651116884369999e-2 9.796974837459999e-2 9.945037151210000e-2 1.009533714030000e-1
1.024790862280000e-1 1.040278592800000e-1 1.056000390390000e-1 1.071959792530000e-1
1.088160390140000e-1 1.104605828420000e-1 1.121299807680000e-1 1.138246084130000e-1
1.155448470750000e-1 1.172910838150000e-1 1.190637115430000e-1 1.208631291090000e-1
1.226897413890000e-1 1.245439593780000e-1 1.264262002840000e-1 1.283368876180000e-1
1.302764512930000e-1 1.322453277190000e-1 1.342439599020000e-1 1.362727975430000e-1
1.383322971370000e-1 1.404229220820000e-1 1.425451427770000e-1 1.446994367310000e-1
1.468862886680000e-1 1.491061906400000e-1 1.513596421330000e-1 1.536471501850000e-1
1.559692294940000e-1 1.583264025370000e-1 1.607191996890000e-1 1.631481593390000e-1
1.656138280130000e-1 1.681167604970000e-1 1.706575199620000e-1 1.732366780880000e-1
1.758548151980000e-1 1.785125203830000e-1 1.812103916380000e-1 1.839490359960000e-1
1.867290696630000e-1 1.895511181580000e-1 1.924158164550000e-1 1.953238091220000e-1
1.982757504710000e-1 2.012723046990000e-1 2.043141460450000e-1 2.074019589370000e-1
2.105364381430000e-1 2.137182889370000e-1 2.169482272470000e-1 2.202269798240000e-1
2.235552844000000e-1 2.269338898580000e-1 2.303635563990000e-1 2.338450557120000e-1
2.373791711490000e-1 2.409666979010000e-1 2.446084431770000e-1 2.483052263840000e-1
2.520578793150000e-1 2.558672463320000e-1 2.597341845590000e-1 2.636595640730000e-1
2.676442681010000e-1 2.716891932190000e-1 2.757952495520000e-1 2.799633609790000e-1
2.841944653430000e-1 2.884895146620000e-1 2.928494753380000e-1 2.972753283810000e-1
3.017680696280000e-1 3.063287099630000e-1 3.109582755500000e-1 3.156578080610000e-1
3.204283649110000e-1 3.252710194950000e-1 3.301868614300000e-1 3.351769968020000e-1
3.402425484120000e-1 3.453846560320000e-1 3.506044766550000e-1 3.559031847660000e-1
3.612819725940000e-1 3.667420503900000e-1 3.722846466950000e-1 3.779110086160000e-1
3.836224021080000e-1 3.894201122590000e-1 3.953054435790000e-1 4.012797202900000e-1
4.073442866320000e-1 4.135005071570000e-1 4.197497670400000e-1 4.260934723920000e-1
4.325330505720000e-1 4.390699505140000e-1 4.457056430470000e-1 4.524416212300000e-1
4.592794006870000e-1 4.662205199460000e-1 4.732665407890000e-1 4.804190486000000e-1
4.876796527240000e-1 4.950499868280000e-1 5.025317092670000e-1 5.101265034600000e-1
5.178360782690000e-1 5.256621683810000e-1 5.336065346970001e-1 5.416709647359999e-1
5.498572730259999e-1 5.581673015230000e-1 5.666029200170000e-1 5.751660265589999e-1
5.838585478830000e-1 5.926824398430000e-1 6.016396878530000e-1 6.107323073310001e-1
6.199623441549999e-1 6.293318751210000e-1 6.388430084149999e-1 6.484978840800000e-1
6.582986745059999e-1 6.682475849100000e-1 6.783468538400000e-1 6.885987536740000e-1
6.990055911320000e-1 7.095697077980000e-1 7.202934806409999e-1 7.311793225560001e-1
7.422296829040000e-1 7.534470480610000e-1 7.648339419830000e-1 7.763929267689999e-1
7.881266032380000e-1 8.000376115180000e-1 8.121286316360001e-1 8.244023841219999e-1
8.368616306230001e-1 8.495091745210001e-1 8.623478615670001e-1 8.753805805200001e-1
8.886102637970000e-1 9.020398881320000e-1 9.156724752470000e-1 9.295110925330000e-1
9.435588537350000e-1 9.578189196600000e-1 9.722944988830001e-1 9.869888484700001e-1
1.001905274710000e0 1.017047133870000e0 1.032417832920000e0 1.048020830340000e0
1.063859636870000e0 1.079937816300000e0 1.096258986300000e0 1.112826819190000e0
1.129645042820000e0 1.146717441340000e0 1.164047856130000e0 1.181640186600000e0
1.199498391090000e0 1.217626487780000e0 1.236028555570000e0 1.254708734990000e0
1.273671229180000e0 1.292920304770000e0 1.312460292880000e0 1.332295590090000e0
1.352430659430000e0 1.372870031370000e0 1.393618304860000e0 1.414680148360000e0
1.436060300850000e0 1.457763572970000e0 1.479794848040000e0 1.502159083200000e0
1.524861310480000e0 1.547906638000000e0 1.571300251040000e0 1.595047413260000e0
1.619153467880000e0 1.643623838870000e0 1.668464032150000e0 1.693679636870000e0
1.719276326670000e0 1.745259860880000e0 1.771636085930000e0 1.798410936570000e0
1.825590437260000e0 1.853180703500000e0 1.881187943220000e0 1.909618458160000e0
1.938478645310000e0 1.967774998330000e0 1.997514109030000e0 2.027702668830000e0
2.058347470290000e0 2.089455408610000e0 2.121033483210000e0 2.153088799290000e0
2.185628569440000e0 2.218660115240000e0 2.252190868920000e0 2.286228375050000e0
2.320780292210000e0 2.355854394720000e0 2.391458574410000e0 2.427600842370000e0
2.464289330770000e0 2.501532294650000e0 2.539338113860000e0 2.577715294860000e0
2.616672472670000e0 2.656218412830000e0 2.696362013330000e0 2.737112306670000e0
2.778478461820000e0 2.820469786350000e0 2.863095728470000e0 2.906365879220000e0
2.950289974550000e0 2.994877897570000e0 3.040139680750000e0 3.086085508190000e0
3.132725717880000e0 3.180070804080000e0 3.228131419630000e0 3.276918378360000e0
3.326442657550000e0 3.376715400380000e0 3.427747918410000e0 3.479551694190000e0
3.532138383780000e0 3.585519819400000e0 3.639708012110000e0 3.694715154480000e0
3.750553623350000e0 3.807235982600000e0 3.864774986010000e0 3.923183580100000e0
3.982474907050000e0 4.042662307650000e0 4.103759324330000e0 4.165779704160000e0
4.228737402000000e0 4.292646583600000e0 4.357521628790000e0 4.423377134730000e0
4.490227919190000e0 4.558089023870000e0 4.626975717820000e0 4.696903500810000e0
4.767888106920000e0 4.839945507960000e0 4.913091917150000e0 4.987343792760000e0
5.062717841760000e0 5.139231023640000e0 5.216900554170000e0 5.295743909340000e0
5.375778829230000e0 5.457023322040000e0 5.539495668110000e0 5.623214424080000e0
5.708198427020000e0 5.794466798690000e0 5.882038949830000e0 5.970934584550000e0
6.061173704740000e0 6.152776614590000e0 6.245763925130000e0 6.340156558910000e0
6.435975754660000e0 6.533243072100000e0 6.631980396800000e0 6.732209945070000e0
6.833954268980000e0 6.937236261420000e0 7.042079161300000e0 7.148506558690000e0
7.256542400220000e0 7.366210994400000e0 7.477537017130000e0 7.590545517240000e0
7.705261922110000e0 7.821712043420000e0 7.939922082930000e0 8.059918638419999e0
8.181728709600000e0 8.305379704250001e0 8.430899444380000e0 8.558316172450001e0
8.687658557770000e0 8.818955702909999e0 8.952237150289999e0 9.087532888800000e0
9.224873360549999e0 9.364289467720001e0 9.505812579520001e0 9.649474539260000e0
9.795307671480000e0 9.943344789250000e0 1.009361920150000e1 1.024616472070000e1
1.040101567020000e1 1.055820689210000e1 1.071777375510000e1 1.087975216240000e1
1.104417855980000e1 1.121108994410000e1 1.138052387080000e1 1.155251846340000e1
1.172711242140000e1 1.190434502920000e1 1.208425616480000e1 1.226688630910000e1
1.245227655450000e1 1.264046861470000e1 1.283150483360000e1 1.302542819530000e1
1.322228233330000e1 1.342211154050000e1 1.362496077950000e1 1.383087569220000e1
1.403990261020000e1 1.425208856560000e1 1.446748130100000e1 1.468612928070000e1
1.490808170150000e1 1.513338850350000e1 1.536210038180000e1 1.559426879750000e1
1.582994598950000e1 1.606918498610000e1 1.631203961710000e1 1.655856452590000e1
1.680881518150000e1 1.706284789140000e1 1.732071981410000e1 1.758248897190000e1
1.784821426380000e1 1.811795547930000e1 1.839177331110000e1 1.866972936960000e1
1.895188619590000e1 1.923830727660000e1 1.952905705750000e1 1.982420095870000e1
2.012380538880000e1 2.042793775990000e1 2.073666650330000e1 2.105006108400000e1
2.136819201740000e1 2.169113088400000e1 2.201895034670000e1 2.235172416600000e1
2.268952721760000e1 2.303243550860000e1 2.338052619470000e1 2.373387759780000e1
2.409256922350000e1 2.445668177900000e1 2.482629719100000e1 2.520149862460000e1
2.558237050170000e1 2.596899852010000e1 2.636146967280000e1 2.675987226730000e1
2.716429594600000e1 2.757483170580000e1 2.799157191920000e1 2.841461035430000e1
2.884404219660000e1 2.927996407010000e1 2.972247405900000e1 3.017167173000000e1
3.062765815450000e1 3.109053593120001e1 3.156040920960000e1 3.203738371330001e1
3.252156676350000e1 3.301306730340000e1 3.351199592270000e1 3.401846488250000e1
3.453258814040000e1 3.505448137630000e1 3.558426201840000e1 3.612204926960000e1
3.666796413430000e1 3.722212944560000e1 3.778466989300000e1 3.835571205060000e1
3.893538440520000e1 3.952381738550001e1 4.012114339160000e1 4.072749682410000e1
4.134301411520000e1 4.196783375900000e1 4.260209634230001e1 4.324594457710000e1
4.389952333190000e1 4.456297966460000e1 4.523646285570000e1 4.592012444190000e1
4.661411824970000e1 4.731860043080000e1 4.803372949670000e1 4.875966635430000e1
4.949657434250000e1 5.024461926880001e1 5.100396944640000e1 5.177479573230000e1
5.255727156570000e1 5.335157300690000e1 5.415787877710001e1 5.497637029850001e1
5.580723173520000e1 5.665065003440001e1 5.750681496890000e1 5.837591917940000e1
5.925815821790000e1
</PP_R>
<PP_RAB>
5.260857493580000e-7 5.340365172820000e-7 5.421074456749999e-7 5.503003505299999e-7
5.586170752850000e-7 5.670594912400000e-7 5.756294979719999e-7 5.843290237690000e-7
5.931600260620000e-7 6.021244918640000e-7 6.112244382160000e-7 6.204619126450001e-7
6.298389936230000e-7 6.393577910310000e-7 6.490204466389998e-7 6.588291345860000e-7
6.687860618679999e-7 6.788934688350000e-7 6.891536296970000e-7 6.995688530330000e-7
7.101414823120001e-7 7.208738964200001e-7 7.317685101959999e-7 7.428277749750000e-7
7.540541791360001e-7 7.654502486690000e-7 7.770185477379998e-7 7.887616792570001e-7
8.006822854820001e-7 8.127830485990000e-7 8.250666913310001e-7 8.375359775500000e-7
8.501937128970001e-7 8.630427454150000e-7 8.760859661929999e-7 8.893263100090000e-7
9.027667559970000e-7 9.164103283129998e-7 9.302600968189999e-7 9.443191777720001e-7
9.585907345230000e-7 9.730779782340001e-7 9.877841685950003e-7 1.002712614560000e-6
1.017866675100000e-6 1.033249759930000e-6 1.048865330310000e-6 1.064716899820000e-6
1.080808035130000e-6 1.097142356800000e-6 1.113723540130000e-6 1.130555315960000e-6
1.147641471500000e-6 1.164985851210000e-6 1.182592357660000e-6 1.200464952370000e-6
1.218607656770000e-6 1.237024553030000e-6 1.255719785030000e-6 1.274697559280000e-6
1.293962145860000e-6 1.313517879380000e-6 1.333369159960000e-6 1.353520454230000e-6
1.373976296320000e-6 1.394741288860000e-6 1.415820104080000e-6 1.437217484800000e-6
1.458938245520000e-6 1.480987273490000e-6 1.503369529850000e-6 1.526090050700000e-6
1.549153948240000e-6 1.572566411960000e-6 1.596332709760000e-6 1.620458189150000e-6
1.644948278470000e-6 1.669808488090000e-6 1.695044411670000e-6 1.720661727390000e-6
1.746666199260000e-6 1.773063678390000e-6 1.799860104330000e-6 1.827061506380000e-6
1.854674004980000e-6 1.882703813060000e-6 1.911157237440000e-6 1.940040680260000e-6
1.969360640420000e-6 1.999123715030000e-6 2.029336600910000e-6 2.060006096090000e-6
2.091139101330000e-6 2.122742621690000e-6 2.154823768090000e-6 2.187389758930000e-6
2.220447921700000e-6 2.254005694610000e-6 2.288070628320000e-6 2.322650387570000e-6
2.357752752960000e-6 2.393385622660000e-6 2.429557014230000e-6 2.466275066370000e-6
2.503548040810000e-6 2.541384324120000e-6 2.579792429620000e-6 2.618780999310000e-6
2.658358805770000e-6 2.698534754170000e-6 2.739317884280000e-6 2.780717372460000e-6
2.822742533790000e-6 2.865402824100000e-6 2.908707842130001e-6 2.952667331700001e-6
2.997291183870000e-6 3.042589439200000e-6 3.088572290000000e-6 3.135250082590000e-6
3.182633319670000e-6 3.230732662680000e-6 3.279558934170001e-6 3.329123120250000e-6
3.379436373080000e-6 3.430510013350000e-6 3.482355532850000e-6 3.534984597030000e-6
3.588409047660001e-6 3.642640905460000e-6 3.697692372840000e-6 3.753575836600000e-6
3.810303870760001e-6 3.867889239360000e-6 3.926344899360001e-6 3.985684003529999e-6
4.045919903410001e-6 4.107066152340001e-6 4.169136508490000e-6 4.232144937930000e-6
4.296105617839999e-6 4.361032939639999e-6 4.426941512250000e-6 4.493846165370000e-6
4.561761952840000e-6 4.630704155999999e-6 4.700688287119999e-6 4.771730092940000e-6
4.843845558170000e-6 4.917050909079999e-6 4.991362617180000e-6 5.066797402940000e-6
5.143372239480000e-6 5.221104356480000e-6 5.300011243990000e-6 5.380110656380000e-6
5.461420616370001e-6 5.543959419040001e-6 5.627745635969999e-6 5.712798119400000e-6
5.799136006519999e-6 5.886778723699999e-6 5.975745990930001e-6 6.066057826220001e-6
6.157734550110002e-6 6.250796790250001e-6 6.345265486039999e-6 6.441161893339999e-6
6.538507589230001e-6 6.637324476920002e-6 6.737634790609999e-6 6.839461100560001e-6
6.942826318110002e-6 7.047753700869999e-6 7.154266857949998e-6 7.262389755249999e-6
7.372146720889999e-6 7.483562450640000e-6 7.596662013510000e-6 7.711470857379999e-6
7.828014814730000e-6 7.946320108439999e-6 8.066413357700000e-6 8.188321583990000e-6
8.312072217179999e-6 8.437693101690000e-6 8.565212502740000e-6 8.694659112740002e-6
8.826062057729999e-6 8.959450903910000e-6 9.094855664340001e-6 9.232306805660000e-6
9.371835254970000e-6 9.513472406750001e-6 9.657250129950000e-6 9.803200775169998e-6
9.951357181930000e-6 1.010175268600000e-5 1.025442112710000e-5 1.040939685620000e-5
1.056671474350000e-5 1.072641018620000e-5 1.088851911640000e-5 1.105307800940000e-5
1.122012389160000e-5 1.138969434890000e-5 1.156182753560000e-5 1.173656218220000e-5
1.191393760480000e-5 1.209399371370000e-5 1.227677102210000e-5 1.246231065590000e-5
1.265065436210000e-5 1.284184451890000e-5 1.303592414490000e-5 1.323293690880000e-5
1.343292713940000e-5 1.363593983520000e-5 1.384202067500000e-5 1.405121602790000e-5
1.426357296370000e-5 1.447913926350000e-5 1.469796343080000e-5 1.492009470180000e-5
1.514558305710000e-5 1.537447923250000e-5 1.560683473060000e-5 1.584270183230000e-5
1.608213360880000e-5 1.632518393320001e-5 1.657190749280000e-5 1.682235980160000e-5
1.707659721220000e-5 1.733467692930000e-5 1.759665702190000e-5 1.786259643640000e-5
1.813255501060000e-5 1.840659348610000e-5 1.868477352280000e-5 1.896715771240000e-5
1.925380959250000e-5 1.954479366100000e-5 1.984017539050000e-5 2.014002124310000e-5
2.044439868550000e-5 2.075337620390000e-5 2.106702331950000e-5 2.138541060420000e-5
2.170860969640001e-5 2.203669331750000e-5 2.236973528750000e-5 2.270781054240000e-5
2.305099515040000e-5 2.339936632950000e-5 2.375300246480000e-5 2.411198312590000e-5
2.447638908490000e-5 2.484630233470000e-5 2.522180610740000e-5 2.560298489280000e-5
2.598992445780000e-5 2.638271186550000e-5 2.678143549470000e-5 2.718618505980000e-5
2.759705163130000e-5 2.801412765580000e-5 2.843750697719999e-5 2.886728485759999e-5
2.930355799900000e-5 2.974642456450000e-5 3.019598420100000e-5 3.065233806139999e-5
3.111558882710000e-5 3.158584073160000e-5 3.206319958350000e-5 3.254777279060000e-5
3.303966938389999e-5 3.353900004220000e-5 3.404587711700000e-5 3.456041465780000e-5
3.508272843759999e-5 3.561293597940000e-5 3.615115658199999e-5 3.669751134740000e-5
3.725212320760001e-5 3.781511695270001e-5 3.838661925869999e-5 3.896675871590000e-5
3.955566585820000e-5 4.015347319230000e-5 4.076031522720000e-5 4.137632850500000e-5
4.200165163120001e-5 4.263642530629999e-5 4.328079235690002e-5 4.393489776840001e-5
4.459888871730000e-5 4.527291460430000e-5 4.595712708800001e-5 4.665168011930000e-5
4.735672997530000e-5 4.807243529540001e-5 4.879895711630001e-5 4.953645890840000e-5
5.028510661270000e-5 5.104506867810001e-5 5.181651609939999e-5 5.259962245530001e-5
5.339456394830001e-5 5.420151944340001e-5 5.502067050899999e-5 5.585220145759999e-5
5.669629938710000e-5 5.755315422320000e-5 5.842295876190001e-5 5.930590871270001e-5
6.020220274310000e-5 6.111204252320000e-5 6.203563277070000e-5 6.297318129720000e-5
6.392489905520000e-5 6.489100018520001e-5 6.587170206389999e-5 6.686722535360000e-5
6.787779405100000e-5 6.890363553850001e-5 6.994498063460000e-5 7.100206364649999e-5
7.207512242230001e-5 7.316439840459999e-5 7.427013668530000e-5 7.539258605999999e-5
7.653199908469999e-5 7.768863213200000e-5 7.886274544930001e-5 8.005460321710000e-5
8.126447360829999e-5 8.249262884890001e-5 8.373934527900001e-5 8.500490341510002e-5
8.628958801309999e-5 8.759368813240000e-5 8.891749720100000e-5 9.026131308169999e-5
9.162543813860001e-5 9.301017930560000e-5 9.441584815539999e-5 9.584276096930001e-5
9.729123880880000e-5 9.876160758750000e-5 1.002541981440000e-4 1.017693463190000e-4
1.033073930260000e-4 1.048686843320000e-4 1.064535715340000e-4 1.080624112400000e-4
1.096955654430000e-4 1.113534016120000e-4 1.130362927660000e-4 1.147446175620000e-4
1.164787603820000e-4 1.182391114140000e-4 1.200260667440000e-4 1.218400284470000e-4
1.236814046690000e-4 1.255506097300000e-4 1.274480642070000e-4 1.293741950370000e-4
1.313294356060000e-4 1.333142258520000e-4 1.353290123620000e-4 1.373742484700000e-4
1.394503943640000e-4 1.415579171840000e-4 1.436972911340000e-4 1.458689975800000e-4
1.480735251660000e-4 1.503113699190000e-4 1.525830353650000e-4 1.548890326380000e-4
1.572298805970000e-4 1.596061059420000e-4 1.620182433340000e-4 1.644668355140000e-4
1.669524334260000e-4 1.694755963400000e-4 1.720368919790000e-4 1.746368966440000e-4
1.772761953470000e-4 1.799553819420000e-4 1.826750592570000e-4 1.854358392310000e-4
1.882383430520000e-4 1.910832012930000e-4 1.939710540620000e-4 1.969025511350000e-4
1.998783521130000e-4 2.028991265640000e-4 2.059655541750000e-4 2.090783249030000e-4
2.122381391370000e-4 2.154457078480000e-4 2.187017527520000e-4 2.220070064730000e-4
2.253622127070000e-4 2.287681263890000e-4 2.322255138660001e-4 2.357351530620000e-4
2.392978336620000e-4 2.429143572850000e-4 2.465855376630000e-4 2.503122008270000e-4
2.540951852920000e-4 2.579353422460000e-4 2.618335357400000e-4 2.657906428840000e-4