<UPF version="2.0.1">
<PP_INFO>
Generated by new atomic code, or converted to UPF format
Author:
Generation date:
Pseudopotential type: US
Element: O
Functional:  SLA  PZ   NOGX NOGC
Suggested minimum cutoff for wavefunctions:   0. Ry
Suggested minimum cutoff for charge density:   0. Ry
The Pseudo was generated with a Non-Relativistic Calculation
L component and cutoff radius for Local Potential:  0   0.0000
Valence configuration:
nl pn  l   occ       Rcut    Rcut US       E pseu
2S  0  0  2.00      1.400      1.600     0.000000
2P  0  1  4.00      1.400      1.600     0.000000
Generation configuration: not available.
</PP_INFO>
<!--
END OF HUMAN READABLE SECTION
-->
<PP_HEADER 
author=""
l_max="2"
l_max_rho="0"
l_local="0"
has_wfc="false"
mesh_size="1269"
comment=""
is_coulomb="false"
date=""
number_of_proj="4"
rho_cutoff="0.000000000000e0"
has_gipaw="false"
relativistic="no"
number_of_wfc="2"
pseudo_type="US"
is_ultrasoft="true"
functional=" SLA  PZ   NOGX NOGC"
element="O "
is_paw="false"
z_valence="6.000000000000e0"
wfc_cutoff="0.000000000000e0"
paw_as_gipaw="false"
total_psenergy="-3.131422127500e1"
has_so="false"
core_correction="false"
generated="Generated by new atomic code, or converted to UPF format"
/>
<PP_MESH dx="1.000000000000e-2" mesh="1269" xmin="-6.000000000001e0" rmax="9.953988900200e1" zmesh="8.000000000000e0">
<PP_R>
3.098440220830001e-4 3.129580062750001e-4 3.161032865290000e-4 3.192801773740000e-4
3.224889965030000e-4 3.257300648010000e-4 3.290037063769999e-4 3.323102485970000e-4
3.356500221190000e-4 3.390233609230000e-4 3.424306023460000e-4 3.458720871140000e-4
3.493481593800001e-4 3.528591667519999e-4 3.564054603350000e-4 3.599873947610000e-4
3.636053282270000e-4 3.672596225280000e-4 3.709506430979999e-4 3.746787590410000e-4
3.784443431720000e-4 3.822477720530000e-4 3.860894260299999e-4 3.899696892710000e-4
3.938889498060000e-4 3.978475995639999e-4 4.018460344130000e-4 4.058846542010000e-4
4.099638627929999e-4 4.140840681120000e-4 4.182456821840000e-4 4.224491211719999e-4
4.266948054240000e-4 4.309831595130000e-4 4.353146122759999e-4 4.396895968640000e-4
4.441085507780000e-4 4.485719159160000e-4 4.530801386209999e-4 4.576336697160000e-4
4.622329645600000e-4 4.668784830860001e-4 4.715706898490001e-4 4.763100540740001e-4
4.810970497010000e-4 4.859321554349999e-4 4.908158547879999e-4 4.957486361360000e-4
5.007309927610001e-4 5.057634229030000e-4 5.108464298079999e-4 5.159805217820001e-4
5.211662122380000e-4 5.264040197500000e-4 5.316944681019999e-4 5.370380863439999e-4
5.424354088420000e-4 5.478869753340000e-4 5.533933309790000e-4 5.589550264190001e-4
5.645726178269999e-4 5.702466669670000e-4 5.759777412489999e-4 5.817664137850000e-4
5.876132634480001e-4 5.935188749260001e-4 5.994838387870000e-4 6.055087515310000e-4
6.115942156550000e-4 6.177408397099999e-4 6.239492383640001e-4 6.302200324609998e-4
6.365538490870000e-4 6.429513216290000e-4 6.494130898380001e-4 6.559397998979999e-4
6.625321044839999e-4 6.691906628319999e-4 6.759161408049998e-4 6.827092109550000e-4
6.895705525950000e-4 6.965008518650001e-4 7.035008018010000e-4 7.105711024020001e-4
7.177124607070001e-4 7.249255908549999e-4 7.322112141670000e-4 7.395700592100001e-4
7.470028618760000e-4 7.545103654500000e-4 7.620933206890000e-4 7.697524858960001e-4
7.774886269929999e-4 7.853025175999999e-4 7.931949391140001e-4 8.011666807819999e-4
8.092185397860000e-4 8.173513213189999e-4 8.255658386639999e-4 8.338629132820000e-4
8.422433748860001e-4 8.507080615289999e-4 8.592578196869999e-4 8.678935043430000e-4
8.766159790730001e-4 8.854261161320000e-4 8.943247965390000e-4 9.033129101720000e-4
9.123913558489999e-4 9.215610414210001e-4 9.308228838660002e-4 9.401778093740001e-4
9.496267534469998e-4 9.591706609870000e-4 9.688104863920000e-4 9.785471936530000e-4
9.883817564490000e-4 9.983151582440000e-4 1.008348392390000e-3 1.018482462210000e-3
1.028718381130000e-3 1.039057172740000e-3 1.049499870940000e-3 1.060047519990000e-3
1.070701174690000e-3 1.081461900390000e-3 1.092330773180000e-3 1.103308879970000e-3
1.114397318550000e-3 1.125597197800000e-3 1.136909637710000e-3 1.148335769530000e-3
1.159876735880000e-3 1.171533690880000e-3 1.183307800210000e-3 1.195200241320000e-3
1.207212203440000e-3 1.219344887790000e-3 1.231599507650000e-3 1.243977288480000e-3
1.256479468080000e-3 1.269107296670000e-3 1.281862037050000e-3 1.294744964700000e-3
1.307757367930000e-3 1.320900547980000e-3 1.334175819190000e-3 1.347584509090000e-3
1.361127958570000e-3 1.374807521980000e-3 1.388624567280000e-3 1.402580476200000e-3
1.416676644330000e-3 1.430914481310000e-3 1.445295410930000e-3 1.459820871300000e-3
1.474492314970000e-3 1.489311209100000e-3 1.504279035590000e-3 1.519397291240000e-3
1.534667487880000e-3 1.550091152560000e-3 1.565669827630000e-3 1.581405071000000e-3
1.597298456190000e-3 1.613351572560000e-3 1.629566025430000e-3 1.645943436260000e-3
1.662485442810000e-3 1.679193699280000e-3 1.696069876530000e-3 1.713115662170000e-3
1.730332760810000e-3 1.747722894170000e-3 1.765287801270000e-3 1.783029238620000e-3
1.800948980390000e-3 1.819048818550000e-3 1.837330563110000e-3 1.855796042260000e-3
1.874447102560000e-3 1.893285609130000e-3 1.912313445840000e-3 1.931532515490000e-3
1.950944740000000e-3 1.970552060610000e-3 1.990356438060000e-3 2.010359852820000e-3
2.030564305240000e-3 2.050971815790001e-3 2.071584425220000e-3 2.092404194820000e-3
2.113433206590000e-3 2.134673563440000e-3 2.156127389420000e-3 2.177796829940000e-3
2.199684051950000e-3 2.221791244210000e-3 2.244120617440000e-3 2.266674404600000e-3
2.289454861090000e-3 2.312464264980000e-3 2.335704917220000e-3 2.359179141890000e-3
2.382889286450000e-3 2.406837721920000e-3 2.431026843170000e-3 2.455459069130000e-3
2.480136843050000e-3 2.505062632710000e-3 2.530238930730000e-3 2.555668254740000e-3
2.581353147710000e-3 2.607296178150000e-3 2.633499940380000e-3 2.659967054800001e-3
2.686700168140000e-3 2.713701953730000e-3 2.740975111780000e-3 2.768522369630000e-3
2.796346482020000e-3 2.824450231390000e-3 2.852836428140000e-3 2.881507910900000e-3
2.910467546860000e-3 2.939718232000000e-3 2.969262891410000e-3 2.999104479590000e-3
3.029245980710000e-3 3.059690408960000e-3 3.090440808790000e-3 3.121500255280000e-3
3.152871854400000e-3 3.184558743340000e-3 3.216564090790000e-3 3.248891097340000e-3
3.281542995710000e-3 3.314523051110000e-3 3.347834561580000e-3 3.381480858290000e-3
3.415465305909999e-3 3.449791302910000e-3 3.484462281910000e-3 3.519481710040000e-3
3.554853089270000e-3 3.590579956780000e-3 3.626665885270000e-3 3.663114483380000e-3
3.699929395990000e-3 3.737114304619999e-3 3.774672927790000e-3 3.812609021400000e-3
3.850926379090000e-3 3.889628832630000e-3 3.928720252300000e-3 3.968204547260000e-3
4.008085665980000e-3 4.048367596610000e-3 4.089054367379999e-3 4.130150046990001e-3
4.171658745040000e-3 4.213584612450000e-3 4.255931841820000e-3 4.298704667930000e-3
4.341907368090000e-3 4.385544262610000e-3 4.429619715200000e-3 4.474138133459999e-3
4.519103969260001e-3 4.564521719219999e-3 4.610395925160000e-3 4.656731174529999e-3
4.703532100900000e-3 4.750803384399999e-3 4.798549752190000e-3 4.846775978970000e-3
4.895486887370000e-3 4.944687348550000e-3 4.994382282580000e-3 5.044576659000000e-3
5.095275497299999e-3 5.146483867380001e-3 5.198206890150000e-3 5.250449737929999e-3
5.303217635060000e-3 5.356515858380000e-3 5.410349737750000e-3 5.464724656590001e-3
5.519646052460001e-3 5.575119417530000e-3 5.631150299190000e-3 5.687744300580000e-3
5.744907081130000e-3 5.802644357180000e-3 5.860961902500000e-3 5.919865548890000e-3
5.979361186770000e-3 6.039454765760000e-3 6.100152295250000e-3 6.161459845060000e-3
6.223383545980000e-3 6.285929590450000e-3 6.349104233110001e-3 6.412913791490000e-3
6.477364646590001e-3 6.542463243549999e-3 6.608216092290000e-3 6.674629768150000e-3
6.741710912540000e-3 6.809466233649999e-3 6.877902507050000e-3 6.947026576440001e-3
7.016845354270000e-3 7.087365822480001e-3 7.158595033179999e-3 7.230540109350001e-3
7.303208245560000e-3 7.376606708680001e-3 7.450742838620000e-3 7.525624049050000e-3
7.601257828150000e-3 7.677651739379999e-3 7.754813422169999e-3 7.832750592769999e-3
7.911471044960000e-3 7.990982650840000e-3 8.071293361650000e-3 8.152411208520000e-3
8.234344303300000e-3 8.317100839380000e-3 8.400689092470000e-3 8.485117421469999e-3
8.570394269279999e-3 8.656528163669998e-3 8.743527718079999e-3 8.831401632550000e-3
8.920158694550000e-3 9.009807779850000e-3 9.100357853429999e-3 9.191817970380001e-3
9.284197276790000e-3 9.377505010670001e-3 9.471750502859999e-3 9.566943177990000e-3
9.663092555410001e-3 9.760208250140000e-3 9.858299973830000e-3 9.957377535739999e-3
1.005745084370000e-2 1.015852990510000e-2 1.026062482800000e-2 1.036374582190000e-2
1.046790319900000e-2 1.057310737520000e-2 1.067936887090000e-2 1.078669831240000e-2
1.089510643270000e-2 1.100460407280000e-2 1.111520218240000e-2 1.122691182150000e-2
1.133974416120000e-2 1.145371048470000e-2 1.156882218880000e-2 1.168509078480000e-2
1.180252789950000e-2 1.192114527690000e-2 1.204095477880000e-2 1.216196838620000e-2
1.228419820050000e-2 1.240765644500000e-2 1.253235546540000e-2 1.265830773170000e-2
1.278552583940000e-2 1.291402251040000e-2 1.304381059430000e-2 1.317490307020000e-2
1.330731304740000e-2 1.344105376700000e-2 1.357613860310000e-2 1.371258106440000e-2
1.385039479530000e-2 1.398959357720000e-2 1.413019133010000e-2 1.427220211390000e-2
1.441564012980000e-2 1.456051972170000e-2 1.470685537770000e-2 1.485466173160000e-2
1.500395356390000e-2 1.515474580420000e-2 1.530705353160000e-2 1.546089197720000e-2
1.561627652480000e-2 1.577322271310000e-2 1.593174623690000e-2 1.609186294850000e-2
1.625358885980000e-2 1.641694014360000e-2 1.658193313500000e-2 1.674858433360000e-2
1.691691040460000e-2 1.708692818070000e-2 1.725865466390000e-2 1.743210702690000e-2
1.760730261510000e-2 1.778425894830000e-2 1.796299372220000e-2 1.814352481050000e-2
1.832587026630000e-2 1.851004832440000e-2 1.869607740280000e-2 1.888397610450000e-2
1.907376321960000e-2 1.926545772690000e-2 1.945907879600000e-2 1.965464578920000e-2
1.985217826340000e-2 2.005169597190000e-2 2.025321886670000e-2 2.045676710030000e-2
2.066236102770000e-2 2.087002120840000e-2 2.107976840860000e-2 2.129162360320000e-2
2.150560797790000e-2 2.172174293130000e-2 2.194005007710000e-2 2.216055124620000e-2
2.238326848890000e-2 2.260822407710000e-2 2.283544050660000e-2 2.306494049910000e-2
2.329674700490000e-2 2.353088320480000e-2 2.376737251270000e-2 2.400623857760000e-2
2.424750528640000e-2 2.449119676590000e-2 2.473733738550000e-2 2.498595175940000e-2
2.523706474930000e-2 2.549070146680000e-2 2.574688727560000e-2 2.600564779460000e-2
2.626700890010000e-2 2.653099672830000e-2 2.679763767840000e-2 2.706695841450000e-2
2.733898586900000e-2 2.761374724490000e-2 2.789127001860000e-2 2.817158194240000e-2
2.845471104800001e-2 2.874068564830000e-2 2.902953434120001e-2 2.932128601170000e-2
2.961596983530001e-2 2.991361528050000e-2 3.021425211210000e-2 3.051791039420000e-2
3.082462049270000e-2 3.113441307900000e-2 3.144731913249999e-2 3.176336994410000e-2
3.208259711920000e-2 3.240503258070000e-2 3.273070857250000e-2 3.305965766250000e-2
3.339191274570000e-2 3.372750704810000e-2 3.406647412930000e-2 3.440884788620000e-2
3.475466255660000e-2 3.510395272230000e-2 3.545675331250000e-2 3.581309960750001e-2
3.617302724240000e-2 3.653657221010000e-2 3.690377086550000e-2 3.727465992870000e-2
3.764927648900001e-2 3.802765800830000e-2 3.840984232510000e-2 3.879586765820000e-2
3.918577261029999e-2 3.957959617240000e-2 3.997737772700000e-2 4.037915705280000e-2
4.078497432790000e-2 4.119487013440000e-2 4.160888546230001e-2 4.202706171330000e-2
4.244944070560000e-2 4.287606467730000e-2 4.330697629130000e-2 4.374221863890000e-2
4.418183524480001e-2 4.462587007110000e-2 4.507436752160000e-2 4.552737244639999e-2
4.598493014639999e-2 4.644708637779999e-2 4.691388735640000e-2 4.738537976290000e-2
4.786161074690000e-2 4.834262793180000e-2 4.882847941980001e-2 4.931921379650000e-2
4.981488013560000e-2 5.031552800420000e-2 5.082120746760000e-2 5.133196909400000e-2
5.184786396020000e-2 5.236894365600000e-2 5.289526028970000e-2 5.342686649360000e-2
5.396381542860000e-2 5.450616079020000e-2 5.505395681320000e-2 5.560725827790001e-2
5.616612051470000e-2 5.673059941030000e-2 5.730075141320000e-2 5.787663353890000e-2
5.845830337619999e-2 5.904581909260001e-2 5.963923944010000e-2 6.023862376130000e-2
6.084403199500001e-2 6.145552468260000e-2 6.207316297389999e-2 6.269700863329999e-2
6.332712404570000e-2 6.396357222330000e-2 6.460641681150001e-2 6.525572209510000e-2
6.591155300539999e-2 6.657397512590001e-2 6.724305469930001e-2 6.791885863430000e-2
6.860145451179999e-2 6.929091059179999e-2 6.998729582070000e-2 7.069067983740000e-2
7.140113298110000e-2 7.211872629759998e-2 7.284353154669999e-2 7.357562120980000e-2
7.431506849630000e-2 7.506194735150000e-2 7.581633246410000e-2 7.657829927310001e-2
7.734792397580000e-2 7.812528353530000e-2 7.891045568839999e-2 7.970351895270000e-2
8.050455263540000e-2 8.131363684040000e-2 8.213085247690000e-2 8.295628126700000e-2
8.379000575450000e-2 8.463210931230002e-2 8.548267615149999e-2 8.634179132970001e-2
8.720954075889999e-2 8.808601121479999e-2 8.897129034530000e-2 8.986546667899999e-2
9.076862963420000e-2 9.168086952800001e-2 9.260227758519999e-2 9.353294594729999e-2
9.447296768199999e-2 9.542243679209999e-2 9.638144822539999e-2 9.735009788390002e-2
9.832848263330000e-2 9.931670031290000e-2 1.003148497450000e-1 1.013230307460000e-1
1.023413441350000e-1 1.033698917430000e-1 1.044087764260000e-1 1.054581020750000e-1
1.065179736210000e-1 1.075884970530000e-1 1.086697794250000e-1 1.097619288650000e-1
1.108650545900000e-1 1.119792669120000e-1 1.131046772540000e-1 1.142413981590000e-1
1.153895432980000e-1 1.165492274880000e-1 1.177205666980000e-1 1.189036780630000e-1
1.200986798940000e-1 1.213056916940000e-1 1.225248341630000e-1 1.237562292190000e-1
1.250000000000000e-1 1.262562708860000e-1 1.275251675030000e-1 1.288068167440000e-1
1.301013467740000e-1 1.314088870470000e-1 1.327295683180000e-1 1.340635226570000e-1
1.354108834590000e-1 1.367717854630000e-1 1.381463647590000e-1 1.395347588070000e-1
1.409371064470000e-1 1.423535479160000e-1 1.437842248570000e-1 1.452292803410000e-1
1.466888588740000e-1 1.481631064150000e-1 1.496521703900000e-1 1.511561997070000e-1
1.526753447700000e-1 1.542097574950000e-1 1.557595913230000e-1 1.573250012410000e-1
1.589061437900000e-1 1.605031770860000e-1 1.621162608330000e-1 1.637455563420000e-1
1.653912265420000e-1 1.670534360030000e-1 1.687323509470000e-1 1.704281392670000e-1
1.721409705420000e-1 1.738710160580000e-1 1.756184488200000e-1 1.773834435740000e-1
1.791661768200000e-1 1.809668268330000e-1 1.827855736790000e-1 1.846225992350000e-1
1.864780872050000e-1 1.883522231390000e-1 1.902451944520000e-1 1.921571904440000e-1
1.940884023140000e-1 1.960390231860000e-1 1.980092481240000e-1 1.999992741520000e-1
2.020093002740000e-1 2.040395274940000e-1 2.060901588380000e-1 2.081613993680000e-1
2.102534562120000e-1 2.123665385770000e-1 2.145008577730000e-1 2.166566272330000e-1
2.188340625370000e-1 2.210333814290000e-1 2.232548038440000e-1 2.254985519250000e-1
2.277648500490000e-1 2.300539248480000e-1 2.323660052310000e-1 2.347013224080000e-1
2.370601099130000e-1 2.394426036270000e-1 2.418490418000000e-1 2.442796650790000e-1
2.467347165290000e-1 2.492144416550000e-1 2.517190884340000e-1 2.542489073310000e-1
2.568041513300000e-1 2.593850759590000e-1 2.619919393120000e-1 2.646250020770000e-1
2.672845275620000e-1 2.699707817230000e-1 2.726840331870000e-1 2.754245532820000e-1
2.781926160620000e-1 2.809884983350000e-1 2.838124796920000e-1 2.866648425330000e-1
2.895458720980000e-1 2.924558564910000e-1 2.953950867130000e-1 2.983638566910000e-1
3.013624633020000e-1 3.043912064110000e-1 3.074503888950000e-1 3.105403166730000e-1
3.136612987420000e-1 3.168136472020000e-1 3.199976772910000e-1 3.232137074140000e-1
3.264620591780000e-1 3.297430574190000e-1 3.330570302410000e-1 3.364043090440000e-1
3.397852285570000e-1 3.432001268770000e-1 3.466493454960000e-1 3.501332293370000e-1
3.536521267940000e-1 3.572063897580000e-1 3.607963736580000e-1 3.644224374970000e-1
3.680849438830000e-1 3.717842590700000e-1 3.755207529930000e-1 3.792947993040000e-1
3.831067754120000e-1 3.869570625160000e-1 3.908460456480000e-1 3.947741137110000e-1
3.987416595150000e-1 4.027490798160000e-1 4.067967753610001e-1 4.108851509230000e-1
4.150146153420000e-1 4.191855815689999e-1 4.233984667030001e-1 4.276536920360000e-1
4.319516830950000e-1 4.362928696830000e-1 4.406776859210000e-1 4.451065702940000e-1
4.495799656960000e-1 4.540983194690000e-1 4.586620834520000e-1 4.632717140260000e-1
4.679276721580000e-1 4.726304234460000e-1 4.773804381710000e-1 4.821781913370000e-1
4.870241627240000e-1 4.919188369340000e-1 4.968627034370000e-1 5.018562566240000e-1
5.068999958560000e-1 5.119944255090000e-1 5.171400550310000e-1 5.223373989900000e-1
5.275869771250000e-1 5.328893143959999e-1 5.382449410430000e-1 5.436543926330000e-1
5.491182101150000e-1 5.546369398750000e-1 5.602111337920000e-1 5.658413492890000e-1
5.715281493930000e-1 5.772721027870000e-1 5.830737838740000e-1 5.889337728239999e-1
5.948526556419999e-1 6.008310242219999e-1 6.068694764050000e-1 6.129686160409999e-1
6.191290530490000e-1 6.253514034789999e-1 6.316362895699999e-1 6.379843398169999e-1
6.443961890290000e-1 6.508724783970000e-1 6.574138555559999e-1 6.640209746480000e-1
6.706944963900000e-1 6.774350881409999e-1 6.842434239660000e-1 6.911201847030000e-1
6.980660580349999e-1 7.050817385540000e-1 7.121679278339999e-1 7.193253345010000e-1
7.265546743000000e-1 7.338566701730000e-1 7.412320523240000e-1 7.486815582980000e-1
7.562059330520000e-1 7.638059290290000e-1 7.714823062350000e-1 7.792358323160000e-1
7.870672826280000e-1 7.949774403249999e-1 8.029670964290000e-1 8.110370499110001e-1
8.191881077740000e-1 8.274210851299999e-1 8.357368052850001e-1 8.441360998160000e-1
8.526198086610000e-1 8.611887801980000e-1 8.698438713300000e-1 8.785859475740001e-1
8.874158831450000e-1 8.963345610430000e-1 9.053428731449999e-1 9.144417202889999e-1
9.236320123660001e-1 9.329146684150000e-1 9.422906167079999e-1 9.517607948470001e-1
9.613261498600000e-1 9.709876382880001e-1 9.807462262900000e-1 9.906028897310000e-1
1.000558614290000e0 1.010614395540000e0 1.020771239070000e0 1.031030160580000e0
1.041392185960000e0 1.051858351430000e0 1.062429703610000e0 1.073107299650000e0
1.083892207310000e0 1.094785505090000e0 1.105788282340000e0 1.116901639340000e0
1.128126687430000e0 1.139464549130000e0 1.150916358240000e0 1.162483259940000e0
1.174166410930000e0 1.185966979540000e0 1.197886145850000e0 1.209925101760000e0
1.222085051190000e0 1.234367210150000e0 1.246772806850000e0 1.259303081880000e0
1.271959288260000e0 1.284742691630000e0 1.297654570340000e0 1.310696215590000e0
1.323868931550000e0 1.337174035510000e0 1.350612857990000e0 1.364186742880000e0
1.377897047580000e0 1.391745143130000e0 1.405732414360000e0 1.419860260000000e0
1.434130092850000e0 1.448543339900000e0 1.463101442500000e0 1.477805856460000e0
1.492658052230000e0 1.507659515060000e0 1.522811745090000e0 1.538116257560000e0
1.553574582950000e0 1.569188267080000e0 1.584958871350000e0 1.600887972830000e0
1.616977164440000e0 1.633228055120000e0 1.649642269960000e0 1.666221450400000e0
1.682967254380000e0 1.699881356480000e0 1.716965448130000e0 1.734221237770000e0
1.751650450970000e0 1.769254830670000e0 1.787036137330000e0 1.804996149100000e0
1.823136661990000e0 1.841459490060000e0 1.859966465610000e0 1.878659439360000e0
1.897540280620000e0 1.916610877490000e0 1.935873137040000e0 1.955328985520000e0
1.974980368530000e0 1.994829251220000e0 2.014877618500000e0 2.035127475220000e0
2.055580846390000e0 2.076239777350000e0 2.097106334020000e0 2.118182603070000e0
2.139470692140000e0 2.160972730070000e0 2.182690867070000e0 2.204627274980000e0
2.226784147450000e0 2.249163700190000e0 2.271768171180000e0 2.294599820880000e0
2.317660932470000e0 2.340953812080000e0 2.364480789030000e0 2.388244216030000e0
2.412246469440000e0 2.436489949500000e0 2.460977080600000e0 2.485710311450000e0
2.510692115400000e0 2.535924990660000e0 2.561411460520000e0 2.587154073670000e0
2.613155404390000e0 2.639418052820000e0 2.665944645250000e0 2.692737834380000e0
2.719800299520000e0 2.747134746970000e0 2.774743910180000e0 2.802630550090000e0
2.830797455400000e0 2.859247442810000e0 2.887983357340000e0 2.917008072620000e0
2.946324491130000e0 2.975935544550000e0 3.005844194010000e0 3.036053430390000e0
3.066566274640000e0 3.097385778070000e0 3.128515022670000e0 3.159957121370000e0
3.191715218420000e0 3.223792489650000e0 3.256192142810000e0 3.288917417910000e0
3.321971587480000e0 3.355357956990000e0 3.389079865080000e0 3.423140683990000e0
3.457543819810000e0 3.492292712900000e0 3.527390838180000e0 3.562841705470000e0
3.598648859910000e0 3.634815882220000e0 3.671346389160000e0 3.708244033800000e0
3.745512505920000e0 3.783155532430000e0 3.821176877630000e0 3.859580343710000e0
3.898369771040000e0 3.937549038590000e0 3.977122064330000e0 4.017092805590000e0
4.057465259480000e0 4.098243463280000e0 4.139431494840000e0 4.181033472990000e0
4.223053557980000e0 4.265495951840000e0 4.308364898860000e0 4.351664685950000e0
4.395399643140000e0 4.439574143950000e0 4.484192605880000e0 4.529259490810000e0
4.574779305460000e0 4.620756601850000e0 4.667195977760000e0 4.714102077150000e0
4.761479590670000e0 4.809333256130000e0 4.857667858920000e0 4.906488232540000e0
4.955799259070000e0 5.005605869660000e0 5.055913045010000e0 5.106725815870000e0
5.158049263580000e0 5.209888520500000e0 5.262248770620000e0 5.315135250010000e0
5.368553247350000e0 5.422508104480000e0 5.477005216950000e0 5.532050034500000e0
5.587648061660000e0 5.643804858290000e0 5.700526040110000e0 5.757817279280000e0
5.815684304970000e0 5.874132903950000e0 5.933168921110000e0 5.992798260100000e0
6.053026883920000e0 6.113860815470000e0 6.175306138190000e0 6.237368996680000e0
6.300055597260000e0 6.363372208650000e0 6.427325162570000e0 6.491920854350000e0
6.557165743640000e0 6.623066354960000e0 6.689629278440000e0 6.756861170420000e0
6.824768754140000e0 6.893358820430000e0 6.962638228350000e0 7.032613905890000e0
7.103292850680000e0 7.174682130680000e0 7.246788884870000e0 7.319620323990000e0
7.393183731240000e0 7.467486463020000e0 7.542535949670000e0 7.618339696200000e0
7.694905283050000e0 7.772240366850000e0 7.850352681150000e0 7.929250037270000e0
8.008940324990000e0 8.089431513430000e0 8.170731651750000e0 8.252848870050000e0
8.335791380120000e0 8.419567476259999e0 8.504185536180000e0 8.589654021730000e0
8.675981479840001e0 8.763176543340000e0 8.851247931780000e0 8.940204452400000e0
9.030055000919999e0 9.120808562450000e0 9.212474212449999e0 9.305061117539999e0
9.398578536500001e0 9.493035821150000e0 9.588442417290000e0 9.684807865660000e0
9.782141802889999e0 9.880453962450000e0 9.979754175640000e0 1.008005237260000e1
1.018135858310000e1 1.028368293800000e1 1.038703566980000e1 1.049142711380000e1
1.059686770920000e1 1.070336800030000e1 1.081093863700000e1 1.091959037670000e1
1.102933408450000e1 1.114018073480000e1 1.125214141260000e1 1.136522731380000e1
1.147944974730000e1 1.159482013530000e1 1.171135001490000e1 1.182905103940000e1
1.194793497880000e1 1.206801372160000e1 1.218929927590000e1 1.231180377020000e1
1.243553945520000e1 1.256051870450000e1 1.268675401620000e1 1.281425801380000e1
1.294304344790000e1 1.307312319710000e1 1.320451026960000e1 1.333721780410000e1
1.347125907140000e1 1.360664747590000e1 1.374339655650000e1 1.388151998820000e1
1.402103158350000e1 1.416194529360000e1 1.430427521000000e1 1.444803556590000e1
1.459324073740000e1 1.473990524510000e1 1.488804375560000e1 1.503767108290000e1
1.518880218980000e1 1.534145218970000e1 1.549563634750000e1 1.565137008180000e1
1.580866896630000e1 1.596754873080000e1 1.612802526340000e1 1.629011461210000e1
1.645383298570000e1 1.661919675640000e1 1.678622246060000e1 1.695492680110000e1
1.712532664830000e1 1.729743904250000e1 1.747128119500000e1 1.764687049020000e1
1.782422448710000e1 1.800336092140000e1 1.818429770670000e1 1.836705293700000e1
1.855164488780000e1 1.873809201860000e1 1.892641297430000e1 1.911662658700000e1
1.930875187820000e1 1.950280806080000e1 1.969881454040000e1 1.989679091790000e1
2.009675699110000e1 2.029873275670000e1 2.050273841250000e1 2.070879435920000e1
2.091692120260000e1 2.112713975560000e1 2.133947104020000e1 2.155393628960000e1
2.177055695060000e1 2.198935468550000e1 2.221035137420000e1 2.243356911650000e1
2.265903023440000e1 2.288675727420000e1 2.311677300880000e1 2.334910044000000e1
2.358376280070000e1 2.382078355730000e1 2.406018641220000e1 2.430199530570000e1
2.454623441900000e1 2.479292817620000e1 2.504210124680000e1 2.529377854850000e1
2.554798524910000e1 2.580474676950000e1 2.606408878610000e1 2.632603723330000e1
2.659061830620000e1 2.685785846300000e1 2.712778442810000e1 2.740042319420000e1
2.767580202550000e1 2.795394846010000e1 2.823489031280000e1 2.851865567800000e1
2.880527293260000e1 2.909477073850000e1 2.938717804570000e1 2.968252409510000e1
2.998083842180000e1 3.028215085720000e1 3.058649153300000e1 3.089389088350000e1
3.120437964870000e1 3.151798887790000e1 3.183474993230000e1 3.215469448820000e1
3.247785454040001e1 3.280426240500001e1 3.313395072330001e1 3.346695246420000e1
3.380330092830000e1 3.414302975060000e1 3.448617290430000e1 3.483276470410000e1
3.518283980940000e1 3.553643322800000e1 3.589358031950001e1 3.625431679900000e1
3.661867874030000e1 3.698670258010000e1 3.735842512090001e1 3.773388353530001e1
3.811311536960000e1 3.849615854720000e1 3.888305137270001e1 3.927383253570000e1
3.966854111470000e1 4.006721658090000e1 4.046989880220000e1 4.087662804700000e1
4.128744498870001e1 4.170239070930000e1 4.212150670380001e1 4.254483488400000e1
4.297241758310000e1 4.340429755980000e1 4.384051800250000e1 4.428112253350000e1
4.472615521360001e1 4.517566054650000e1 4.562968348320000e1 4.608826942620000e1
4.655146423450001e1 4.701931422810000e1 4.749186619230001e1 4.796916738260000e1
4.845126552970001e1 4.893820884370000e1 4.943004601940000e1 4.992682624090000e1
5.042859918660000e1 5.093541503420000e1 5.144732446580001e1 5.196437867270000e1
5.248662936080001e1 5.301412875560001e1 5.354692960740000e1 5.408508519680001e1
5.462864933980001e1 5.517767639320001e1 5.573222126030000e1 5.629233939600001e1
5.685808681240001e1 5.742952008500001e1 5.800669635740000e1 5.858967334780001e1
5.917850935440001e1 5.977326326120000e1 6.037399454410000e1 6.098076327680000e1
6.159363013670000e1 6.221265641090000e1 6.283790400250000e1 6.346943543700000e1
6.410731386790001e1 6.475160308350000e1 6.540236751350000e1 6.605967223470000e1
6.672358297820001e1 6.739416613560000e1 6.807148876570000e1 6.875561860150000e1
6.944662405640000e1 7.014457423160001e1 7.084953892270001e1 7.156158862670001e1
7.228079454920000e1 7.300722861140000e1 7.374096345730000e1 7.448207246100001e1
7.523062973400001e1 7.598671013270000e1 7.675038926570000e1 7.752174350160001e1
7.830084997640000e1 7.908778660150000e1 7.988263207120001e1 8.068546587060000e1
8.149636828389999e1 8.231542040190000e1 8.314270413050000e1 8.397830219890000e1
8.482229816740000e1 8.567477643649999e1 8.653582225460001e1 8.740552172700001e1
8.828396182440001e1 8.917123039160002e1 9.006741615610000e1 9.097260873740000e1
9.188689865520001e1 9.281037733960000e1 9.374313713899999e1 9.468527133020000e1
9.563687412749999e1 9.659804069190001e1 9.756886714090001e1 9.854945055780000e1
9.953988900200001e1
</PP_R>
<PP_RAB>
3.098440220830000e-6 3.129580062750001e-6 3.161032865290000e-6 3.192801773740000e-6
3.224889965030000e-6 3.257300648010000e-6 3.290037063769999e-6 3.323102485970000e-6
3.356500221190000e-6 3.390233609230000e-6 3.424306023460000e-6 3.458720871140000e-6
3.493481593800001e-6 3.528591667519999e-6 3.564054603350000e-6 3.599873947610000e-6
3.636053282270000e-6 3.672596225280000e-6 3.709506430979999e-6 3.746787590409999e-6
3.784443431720000e-6 3.822477720530001e-6 3.860894260299999e-6 3.899696892710000e-6
3.938889498060000e-6 3.978475995639999e-6 4.018460344130000e-6 4.058846542010000e-6
4.099638627930001e-6 4.140840681120000e-6 4.182456821840000e-6 4.224491211720000e-6
4.266948054240000e-6 4.309831595130000e-6 4.353146122760000e-6 4.396895968640000e-6
4.441085507780000e-6 4.485719159160000e-6 4.530801386210001e-6 4.576336697159999e-6
4.622329645599999e-6 4.668784830860000e-6 4.715706898489999e-6 4.763100540740001e-6
4.810970497010000e-6 4.859321554349999e-6 4.908158547879999e-6 4.957486361360001e-6
5.007309927609999e-6 5.057634229030001e-6 5.108464298079999e-6 5.159805217820001e-6
5.211662122380001e-6 5.264040197500000e-6 5.316944681019999e-6 5.370380863439999e-6
5.424354088420000e-6 5.478869753340000e-6 5.533933309790000e-6 5.589550264190001e-6
5.645726178269999e-6 5.702466669670000e-6 5.759777412489999e-6 5.817664137850000e-6
5.876132634480001e-6 5.935188749260001e-6 5.994838387870000e-6 6.055087515310000e-6
6.115942156550000e-6 6.177408397099999e-6 6.239492383640000e-6 6.302200324610001e-6
6.365538490870000e-6 6.429513216290000e-6 6.494130898380001e-6 6.559397998979999e-6
6.625321044839999e-6 6.691906628319999e-6 6.759161408049998e-6 6.827092109550000e-6
6.895705525950001e-6 6.965008518650001e-6 7.035008018010000e-6 7.105711024020001e-6
7.177124607070001e-6 7.249255908549999e-6 7.322112141670000e-6 7.395700592100001e-6
7.470028618760000e-6 7.545103654500000e-6 7.620933206890000e-6 7.697524858960001e-6
7.774886269930001e-6 7.853025175999999e-6 7.931949391140001e-6 8.011666807819999e-6
8.092185397860002e-6 8.173513213190001e-6 8.255658386639999e-6 8.338629132820000e-6
8.422433748860001e-6 8.507080615289999e-6 8.592578196869999e-6 8.678935043430000e-6
8.766159790730001e-6 8.854261161320000e-6 8.943247965390000e-6 9.033129101720000e-6
9.123913558489999e-6 9.215610414210001e-6 9.308228838660002e-6 9.401778093739999e-6
9.496267534469998e-6 9.591706609870000e-6 9.688104863920001e-6 9.785471936530000e-6