 
             +---------------------------------------------------+
             |                                                   |
             |                   WANNIER90                       |
             |                                                   |
             +---------------------------------------------------+
             |                                                   |
             |        Welcome to the Maximally-Localized         |
             |        Generalized Wannier Functions code         |
             |            http://www.wannier.org                 |
             |                                                   |
             |                                                   |
             |  Wannier90 Developer Group:                       |
             |    Giovanni Pizzi    (EPFL)                       |
             |    Valerio Vitale    (Cambridge)                  |
             |    David Vanderbilt  (Rutgers University)         |
             |    Nicola Marzari    (EPFL)                       |
             |    Ivo Souza         (Universidad del Pais Vasco) |
             |    Arash A. Mostofi  (Imperial College London)    |
             |    Jonathan R. Yates (University of Oxford)       |
             |                                                   |
             |  For the full list of Wannier90 3.x authors,      |
             |  please check the code documentation and the      |
             |  README on the GitHub page of the code            |
             |                                                   |
             |                                                   |
             |  Please cite                                      |
             |                                                   |
             |  [ref] "Wannier90 as a community code:            |
             |        new features and applications",            |
             |        G. Pizzi et al., J. Phys. Cond. Matt. 32,  |
             |        165902 (2020).                             |
             |        http://doi.org/10.1088/1361-648X/ab51ff    |
             |                                                   |
             |  in any publications arising from the use of      |
             |  this code. For the method please cite            |
             |                                                   |
             |  [ref] "Maximally Localized Generalised Wannier   |
             |         Functions for Composite Energy Bands"     |
             |         N. Marzari and D. Vanderbilt              |
             |         Phys. Rev. B 56 12847 (1997)              |
             |                                                   |
             |  [ref] "Maximally Localized Wannier Functions     |
             |         for Entangled Energy Bands"               |
             |         I. Souza, N. Marzari and D. Vanderbilt    |
             |         Phys. Rev. B 65 035109 (2001)             |
             |                                                   |
             |                                                   |
             | Copyright (c) 1996-2020                           |
             |        The Wannier90 Developer Group and          |
             |        individual contributors                    |
             |                                                   |
             |      Release: 3.1.0        5th March    2020      |
             |                                                   |
             | This program is free software; you can            |
             | redistribute it and/or modify it under the terms  |
             | of the GNU General Public License as published by |
             | the Free Software Foundation; either version 2 of |
             | the License, or (at your option) any later version|
             |                                                   |
             | This program is distributed in the hope that it   |
             | will be useful, but WITHOUT ANY WARRANTY; without |
             | even the implied warranty of MERCHANTABILITY or   |
             | FITNESS FOR A PARTICULAR PURPOSE. See the GNU     |
             | General Public License for more details.          |
             |                                                   |
             | You should have received a copy of the GNU General|
             | Public License along with this program; if not,   |
             | write to the Free Software Foundation, Inc.,      |
             | 675 Mass Ave, Cambridge, MA 02139, USA.           |
             |                                                   |
             +---------------------------------------------------+
             |    Execution started on 11Nov2021 at 17:48:00     |
             +---------------------------------------------------+
 
 ******************************************************************************
 * -> Using CODATA 2006 constant values                                       *
 *    (http://physics.nist.gov/cuu/Constants/index.html)                      *
 * -> Using Bohr value from CODATA                                            *
 ******************************************************************************
 

 Running in serial (with parallel executable)
 
                                    ------
                                    SYSTEM
                                    ------
 
                              Lattice Vectors (Ang)
                    a_1     0.000000   3.411322   5.908583
                    a_2     0.000000  -3.411322   5.908583
                    a_3    13.838304   0.000000   0.000000
 
                   Unit Cell Volume:     557.85192  (Ang^3)
 
                        Reciprocal-Space Vectors (Ang^-1)
                    b_1     0.000000   0.920931   0.531700
                    b_2     0.000000  -0.920931   0.531700
                    b_3     0.454043   0.000000   0.000000
  
 *----------------------------------------------------------------------------*
 |   Site       Fractional Coordinate          Cartesian Coordinate (Ang)     |
 +----------------------------------------------------------------------------+
 | Cr   1   0.33333   0.33333   0.50000   |    6.91915   0.00000   3.93906    |
 | Cr   2   0.66667   0.66667   0.50000   |    6.91915   0.00000   7.87811    |
 | I    1   0.35393   0.00000   0.38811   |    5.37075   1.20735   2.09120    |
 | I    2   1.00000   0.35393   0.61189   |    8.46756   2.20397   7.99978    |
 | I    3   0.64607   0.35393   0.38811   |    5.37075   0.99661   5.90858    |
 | I    4   0.35393   0.64607   0.61189   |    8.46756  -0.99661   5.90858    |
 | I    5   0.00000   0.64607   0.38811   |    5.37075  -2.20397   3.81738    |
 | I    6   0.64607   1.00000   0.61189   |    8.46756  -1.20735   9.72597    |
 *----------------------------------------------------------------------------*
                                ------------
                                K-POINT GRID
                                ------------
  
             Grid size =  9 x  9 x  1      Total points =   81
  
  
 *---------------------------------- MAIN ------------------------------------*
 |  Number of Wannier Functions               :                56             |
 |  Number of Objective Wannier Functions     :                56             |
 |  Number of input Bloch states              :                56             |
 |  Output verbosity (1=low, 5=high)          :                 1             |
 |  Timing Level (1=low, 5=high)              :                 1             |
 |  Optimisation (0=memory, 3=speed)          :                 3             |
 |  Length Unit                               :               Ang             |
 |  Post-processing setup (write *.nnkp)      :                 F             |
 |  Using Gamma-only branch of algorithms     :                 F             |
 *----------------------------------------------------------------------------*
 *------------------------------- WANNIERISE ---------------------------------*
 |  Total number of iterations                :               300             |
 |  Number of CG steps before reset           :                 5             |
 |  Trial step length for line search         :             2.000             |
 |  Convergence tolerence                     :         0.100E-09             |
 |  Convergence window                        :                -1             |
 |  Iterations between writing output         :                 1             |
 |  Iterations between backing up to disk     :               100             |
 |  Write r^2_nm to file                      :                 F             |
 |  Write xyz WF centres to file              :                 T             |
 |  Write on-site energies <0n|H|0n> to file  :                 F             |
 |  Use guiding centre to control phases      :                 T             |
 |  Use phases for initial projections        :                 F             |
 |  Iterations before starting guiding centres:                 0             |
 |  Iterations between using guiding centres  :                 1             |
 *----------------------------------------------------------------------------*
 *-------------------------------- PLOTTING ----------------------------------*
 |  Plotting interpolated bandstructure       :                 T             |
 |   Number of K-path sections                :                 6             |
 |   Divisions along first K-path section     :               410             |
 |   Output format                            :           gnuplot             |
 |   Output mode                              :               s-k             |
 *----------------------------------------------------------------------------*
 |   K-space path sections:                                                   |
 |    From: X       0.500  0.000  0.000     To: GM      0.000  0.000  0.500   |
 |    From: GM      0.000  0.000  0.500     To: Y       0.000  0.500  0.000   |
 |    From: Y       0.000  0.500  0.000     To: S       0.500  0.500  0.000   |
 |    From: S       0.500  0.500  0.000     To: X       0.500  0.000  0.000   |
 |    From: X       0.500  0.000  0.000     To: R       0.500  0.500  0.500   |
 |    From: R       0.500  0.500  0.500     To: GM      0.000  0.000  0.000   |
 *----------------------------------------------------------------------------*
 |  Plotting Hamiltonian in WF basis          :                 T             |
 *----------------------------------------------------------------------------*
 Time to read parameters        0.015 (sec)

 *---------------------------------- K-MESH ----------------------------------*
 +----------------------------------------------------------------------------+
 |                    Distance to Nearest-Neighbour Shells                    |
 |                    ------------------------------------                    |
 |          Shell             Distance (Ang^-1)          Multiplicity         |
 |          -----             -----------------          ------------         |
 |             1                   0.118156                      6            |
 |             2                   0.204651                      6            |
 |             3                   0.236311                      6            |
 |             4                   0.312610                     12            |
 |             5                   0.354467                      6            |
 |             6                   0.409303                      6            |
 |             7                   0.426016                     12            |
 |             8                   0.454043                      2            |
 |             9                   0.469165                     12            |
 |            10                   0.472622                      6            |
 |            11                   0.498033                     12            |
 |            12                   0.511857                     12            |
 |            13                   0.515028                     12            |
 |            14                   0.541457                     12            |
 |            15                   0.551253                     24            |
 |            16                   0.576022                     12            |
 |            17                   0.590778                      6            |
 |            18                   0.611297                     12            |
 |            19                   0.613954                      6            |
 |            20                   0.622611                     24            |
 |            21                   0.625220                     12            |
 |            22                   0.655383                     12            |
 |            23                   0.657862                     12            |
 |            24                   0.686592                     24            |
 +----------------------------------------------------------------------------+
 | The b-vectors are chosen automatically                                     |
 | SVD found small singular value, Rejecting this shell and trying the next   |
 | SVD found small singular value, Rejecting this shell and trying the next   |
 | SVD found small singular value, Rejecting this shell and trying the next   |
 | SVD found small singular value, Rejecting this shell and trying the next   |
 | The following shells are used:   1,  8                                     |
 +----------------------------------------------------------------------------+
 |                        Shell   # Nearest-Neighbours                        |
 |                        -----   --------------------                        |
 |                          1               6                                 |
 |                          8               2                                 |
 +----------------------------------------------------------------------------+
 | Completeness relation is fully satisfied [Eq. (B1), PRB 56, 12847 (1997)]  |
 +----------------------------------------------------------------------------+
 |                  b_k Vectors (Ang^-1) and Weights (Ang^2)                  |
 |                  ----------------------------------------                  |
 |            No.         b_k(x)      b_k(y)      b_k(z)        w_b           |
 |            ---        --------------------------------     --------        |
 |             1         0.000000    0.102326    0.059078    23.876503        |
 |             2         0.000000    0.000000    0.118156    23.876503        |
 |             3         0.000000   -0.102326   -0.059078    23.876503        |
 |             4         0.000000   -0.102326    0.059078    23.876503        |
 |             5         0.000000    0.102326   -0.059078    23.876503        |
 |             6         0.000000    0.000000   -0.118156    23.876503        |
 |             7         0.454043    0.000000    0.000000     2.425359        |
 |             8        -0.454043    0.000000    0.000000     2.425359        |
 +----------------------------------------------------------------------------+
 |                           b_k Directions (Ang^-1)                          |
 |                           -----------------------                          |
 |            No.           x           y           z                         |
 |            ---        --------------------------------                     |
 |             1         0.000000    0.102326    0.059078                     |
 |             2         0.000000    0.000000    0.118156                     |
 |             3         0.000000   -0.102326    0.059078                     |
 |             4         0.454043    0.000000    0.000000                     |
 +----------------------------------------------------------------------------+
  
 Time to get kmesh              0.047 (sec)
 *============================================================================*
 |                              MEMORY ESTIMATE                               |
 |         Maximum RAM allocated during each phase of the calculation         |
 *============================================================================*
 |                            Wannierise:           79.24 Mb                  |
 |                          plot_wannier:           79.24 Mb                  |
 *----------------------------------------------------------------------------*
  
 Starting a new Wannier90 calculation ...


 Reading overlaps from wannier90.mmn    : File generated by VASP: unknown system

 Reading projections from wannier90.amn : File generated by VASP: unknown system

 Time to read overlaps          2.157 (sec)

 Writing checkpoint file wannier90.chk... done

 
 *------------------------------- WANNIERISE ---------------------------------*
 +--------------------------------------------------------------------+<-- CONV
 | Iter  Delta Spread     RMS Gradient      Spread (Ang^2)      Time  |<-- CONV
 +--------------------------------------------------------------------+<-- CONV
 
 ------------------------------------------------------------------------------
 Initial State
  WF centre and spread    1  (  6.919152, -0.000000,  3.936243 )     0.85501531
  WF centre and spread    2  (  6.919152, -0.000001,  3.938238 )     1.27310696
  WF centre and spread    3  (  6.919152, -0.000000,  3.943564 )     0.88826880
  WF centre and spread    4  (  6.919152, -0.000002,  3.946595 )     1.16258342
  WF centre and spread    5  (  6.919152,  0.000000,  3.944067 )     0.87341409
  WF centre and spread    6  (  6.919152,  0.000001,  3.946195 )     1.28763978
  WF centre and spread    7  (  6.919152, -0.000000,  3.936863 )     0.81596363
  WF centre and spread    8  (  6.919152, -0.000000,  3.932729 )     1.24331815
  WF centre and spread    9  (  6.919152,  0.000000,  3.934535 )     0.88584417
  WF centre and spread   10  (  6.919152,  0.000001,  3.931522 )     1.15937117
  WF centre and spread   11  (  6.919152,  0.000000,  7.880923 )     0.85501511
  WF centre and spread   12  (  6.919152,  0.000001,  7.878928 )     1.27310677
  WF centre and spread   13  (  6.919152,  0.000000,  7.873602 )     0.88826860
  WF centre and spread   14  (  6.919152,  0.000002,  7.870571 )     1.16258322
  WF centre and spread   15  (  6.919152, -0.000000,  7.873099 )     0.87341389
  WF centre and spread   16  (  6.919152, -0.000001,  7.870971 )     1.28763958
  WF centre and spread   17  (  6.919152,  0.000000,  7.880303 )     0.81596343
  WF centre and spread   18  (  6.919152,  0.000000,  7.884437 )     1.24331796
  WF centre and spread   19  (  6.919152, -0.000000,  7.882631 )     0.88584397
  WF centre and spread   20  (  6.919152, -0.000001,  7.885644 )     1.15937097
  WF centre and spread   21  (  5.426229,  1.194897,  2.101059 )     2.41207283
  WF centre and spread   22  (  5.417896,  1.188123,  2.091697 )     2.42820652
  WF centre and spread   23  (  5.349601,  1.229610,  2.129774 )     2.20648589
  WF centre and spread   24  (  5.331339,  1.227956,  2.126863 )     2.23437500
  WF centre and spread   25  (  5.455720,  1.243312,  2.121869 )     2.44297689
  WF centre and spread   26  (  5.449785,  1.241354,  2.116036 )     2.47817228
  WF centre and spread   27  (  8.412075,  2.216429,  8.009647 )     2.41259359
  WF centre and spread   28  (  8.420409,  2.223203,  8.000287 )     2.42876464
  WF centre and spread   29  (  8.488703,  2.181705,  8.038353 )     2.20679801
  WF centre and spread   30  (  8.506966,  2.183358,  8.035442 )     2.23464519
  WF centre and spread   31  (  8.382584,  2.168002,  8.030446 )     2.44328974
  WF centre and spread   32  (  8.388520,  2.169959,  8.024613 )     2.47855682
  WF centre and spread   33  (  5.470528,  0.931027,  5.908581 )     2.54297162
  WF centre and spread   34  (  5.465824,  0.934352,  5.908581 )     2.59025160
  WF centre and spread   35  (  5.349633,  0.952026,  5.908585 )     2.21185020
  WF centre and spread   36  (  5.331338,  0.955418,  5.908585 )     2.24016230
  WF centre and spread   37  (  5.411594,  1.015470,  5.908584 )     2.30662362
  WF centre and spread   38  (  5.402010,  1.029743,  5.908585 )     2.30988756
  WF centre and spread   39  (  8.367777, -0.931027,  5.908585 )     2.54297162
  WF centre and spread   40  (  8.372481, -0.934352,  5.908585 )     2.59025160
  WF centre and spread   41  (  8.488671, -0.952026,  5.908581 )     2.21185020
  WF centre and spread   42  (  8.506966, -0.955418,  5.908581 )     2.24016230
  WF centre and spread   43  (  8.426710, -1.015470,  5.908582 )     2.30662362
  WF centre and spread   44  (  8.436295, -1.029743,  5.908581 )     2.30988756
  WF centre and spread   45  (  5.426229, -2.216429,  3.807519 )     2.41259380
  WF centre and spread   46  (  5.417896, -2.223203,  3.816879 )     2.42876484
  WF centre and spread   47  (  5.349601, -2.181705,  3.778813 )     2.20679822
  WF centre and spread   48  (  5.331339, -2.183358,  3.781724 )     2.23464541
  WF centre and spread   49  (  5.455720, -2.168002,  3.786720 )     2.44328995
  WF centre and spread   50  (  5.449785, -2.169959,  3.792553 )     2.47855703
  WF centre and spread   51  (  8.412075, -1.194897,  9.716107 )     2.41207245
  WF centre and spread   52  (  8.420409, -1.188123,  9.725469 )     2.42820614
  WF centre and spread   53  (  8.488703, -1.229610,  9.687392 )     2.20648551
  WF centre and spread   54  (  8.506965, -1.227956,  9.690303 )     2.23437462
  WF centre and spread   55  (  8.382584, -1.243312,  9.695297 )     2.44297651
  WF centre and spread   56  (  8.388520, -1.241354,  9.701130 )     2.47817190
  Sum of centres and spreads (387.472526,  0.000000,330.880649 )   106.10641656
 
      0     0.106E+03     0.0000000000      106.1064257428       0.00  <-- CONV
        O_D=      0.0130975 O_OD=      5.7052730 O_TOT=    106.1064257 <-- SPRD
 ------------------------------------------------------------------------------
 Cycle:      1
  WF centre and spread    1  (  6.919152, -0.000000,  3.936220 )     0.84638593
  WF centre and spread    2  (  6.919152, -0.000001,  3.938180 )     1.26141105
  WF centre and spread    3  (  6.919152, -0.000000,  3.943569 )     0.88056731
  WF centre and spread    4  (  6.919152, -0.000002,  3.946677 )     1.15462942
  WF centre and spread    5  (  6.919152,  0.000000,  3.944108 )     0.86389224
  WF centre and spread    6  (  6.919152,  0.000001,  3.946371 )     1.27426115
  WF centre and spread    7  (  6.919152,  0.000000,  3.936854 )     0.80896267
  WF centre and spread    8  (  6.919152,  0.000000,  3.932634 )     1.23558341
  WF centre and spread    9  (  6.919152, -0.000000,  3.934552 )     0.87824151
  WF centre and spread   10  (  6.919152,  0.000001,  3.931461 )     1.15149862
  WF centre and spread   11  (  6.919152,  0.000000,  7.880946 )     0.84638573
  WF centre and spread   12  (  6.919152,  0.000001,  7.878986 )     1.26141085
  WF centre and spread   13  (  6.919153,  0.000000,  7.873598 )     0.88056711
  WF centre and spread   14  (  6.919153,  0.000002,  7.870490 )     1.15462922
  WF centre and spread   15  (  6.919152, -0.000000,  7.873058 )     0.86389204
  WF centre and spread   16  (  6.919152, -0.000001,  7.870795 )     1.27426095
  WF centre and spread   17  (  6.919152, -0.000000,  7.880312 )     0.80896247
  WF centre and spread   18  (  6.919152, -0.000000,  7.884532 )     1.23558321
  WF centre and spread   19  (  6.919152,  0.000000,  7.882614 )     0.87824131
  WF centre and spread   20  (  6.919152, -0.000001,  7.885705 )     1.15149842
  WF centre and spread   21  (  5.425223,  1.194792,  2.100839 )     2.40321773
  WF centre and spread   22  (  5.417271,  1.188206,  2.091690 )     2.41942935
  WF centre and spread   23  (  5.348676,  1.229374,  2.129359 )     2.19940654
  WF centre and spread   24  (  5.330701,  1.227839,  2.126658 )     2.22634451
  WF centre and spread   25  (  5.454673,  1.243104,  2.121545 )     2.43048232
  WF centre and spread   26  (  5.449065,  1.241177,  2.115897 )     2.46416337
  WF centre and spread   27  (  8.413080,  2.216538,  8.009430 )     2.40392493
  WF centre and spread   28  (  8.421032,  2.223122,  8.000282 )     2.42017730
  WF centre and spread   29  (  8.489629,  2.181941,  8.037937 )     2.19970359
  WF centre and spread   30  (  8.507604,  2.183475,  8.035236 )     2.22661817
  WF centre and spread   31  (  8.383631,  2.168212,  8.030125 )     2.43092196
  WF centre and spread   32  (  8.389239,  2.170138,  8.024477 )     2.46468955
  WF centre and spread   33  (  5.469478,  0.931502,  5.908577 )     2.53160425
  WF centre and spread   34  (  5.465074,  0.934688,  5.908577 )     2.57669857
  WF centre and spread   35  (  5.348699,  0.952526,  5.908587 )     2.20468281
  WF centre and spread   36  (  5.330693,  0.955682,  5.908587 )     2.23200461
  WF centre and spread   37  (  5.410598,  1.015625,  5.908584 )     2.29716246
  WF centre and spread   38  (  5.401429,  1.029564,  5.908584 )     2.30134089
  WF centre and spread   39  (  8.368827, -0.931502,  5.908589 )     2.53160425
  WF centre and spread   40  (  8.373230, -0.934688,  5.908589 )     2.57669857
  WF centre and spread   41  (  8.489605, -0.952526,  5.908579 )     2.20468281
  WF centre and spread   42  (  8.507612, -0.955682,  5.908579 )     2.23200461
  WF centre and spread   43  (  8.427707, -1.015625,  5.908583 )     2.29716246
  WF centre and spread   44  (  8.436875, -1.029564,  5.908582 )     2.30134089
  WF centre and spread   45  (  5.425225, -2.216538,  3.807736 )     2.40392514
  WF centre and spread   46  (  5.417273, -2.223122,  3.816884 )     2.42017751
  WF centre and spread   47  (  5.348675, -2.181941,  3.779229 )     2.19970380
  WF centre and spread   48  (  5.330700, -2.183475,  3.781930 )     2.22661838
  WF centre and spread   49  (  5.454674, -2.168212,  3.787042 )     2.43092217
  WF centre and spread   50  (  5.449065, -2.170138,  3.792689 )     2.46468976
  WF centre and spread   51  (  8.413081, -1.194792,  9.716327 )     2.40321735
  WF centre and spread   52  (  8.421033, -1.188206,  9.725476 )     2.41942897
  WF centre and spread   53  (  8.489628, -1.229374,  9.687807 )     2.19940617
  WF centre and spread   54  (  8.507604, -1.227839,  9.690508 )     2.22634414
  WF centre and spread   55  (  8.383631, -1.243104,  9.695621 )     2.43048194
  WF centre and spread   56  (  8.389240, -1.241177,  9.701269 )     2.46416299
  Sum of centres and spreads (387.472526,  0.000000,330.880649 )   105.57600942
 
      1    -0.530E+00     1.6939728936      105.5760186079       0.26  <-- CONV
        O_D=      0.0071606 O_OD=      5.1808027 O_TOT=    105.5760186 <-- SPRD
 Delta: O_D= -0.5936823E-02 O_OD= -0.5244703E+00 O_TOT= -0.5304071E+00 <-- DLTA
 ------------------------------------------------------------------------------
 Cycle:      2
  WF centre and spread    1  (  6.919152, -0.000001,  3.936137 )     0.83418247
  WF centre and spread    2  (  6.919152, -0.000001,  3.937937 )     1.25166905
  WF centre and spread    3  (  6.919152, -0.000000,  3.943574 )     0.87323339
  WF centre and spread    4  (  6.919152, -0.000002,  3.946794 )     1.15306756
  WF centre and spread    5  (  6.919152,  0.000001,  3.944189 )     0.85162731
  WF centre and spread    6  (  6.919152,  0.000001,  3.946764 )     1.26382030
  WF centre and spread    7  (  6.919152,  0.000000,  3.936850 )     0.79781099
  WF centre and spread    8  (  6.919152,  0.000001,  3.932496 )     1.22847747
  WF centre and spread    9  (  6.919152,  0.000000,  3.934560 )     0.87116388
  WF centre and spread   10  (  6.919152,  0.000001,  3.931365 )     1.15005043
  WF centre and spread   11  (  6.919152,  0.000001,  7.881029 )     0.83418227
  WF centre and spread   12  (  6.919152,  0.000001,  7.879229 )     1.25166885
  WF centre and spread   13  (  6.919153,  0.000000,  7.873592 )     0.87323319
  WF centre and spread   14  (  6.919153,  0.000002,  7.870372 )     1.15306737
  WF centre and spread   15  (  6.919152, -0.000001,  7.872977 )     0.85162711
  WF centre and spread   16  (  6.919152, -0.000001,  7.870402 )     1.26382011
  WF centre and spread   17  (  6.919152, -0.000000,  7.880316 )     0.79781079
  WF centre and spread   18  (  6.919153, -0.000001,  7.884670 )     1.22847727
  WF centre and spread   19  (  6.919152, -0.000000,  7.882606 )     0.87116368
  WF centre and spread   20  (  6.919152, -0.000001,  7.885801 )     1.15005023
  WF centre and spread   21  (  5.423564,  1.194608,  2.100338 )     2.38814766
  WF centre and spread   22  (  5.416413,  1.188317,  2.091499 )     2.40886101
  WF centre and spread   23  (  5.347133,  1.228880,  2.128493 )     2.18514435
  WF centre and spread   24  (  5.329804,  1.227551,  2.126152 )     2.21340237
  WF centre and spread   25  (  5.452945,  1.242621,  2.120841 )     2.41376791
  WF centre and spread   26  (  5.448046,  1.240753,  2.115507 )     2.44931689
  WF centre and spread   27  (  8.414739,  2.216727,  8.008927 )     2.38877646
  WF centre and spread   28  (  8.421891,  2.223015,  8.000091 )     2.40953490
  WF centre and spread   29  (  8.491172,  2.182435,  8.037074 )     2.18543198
  WF centre and spread   30  (  8.508502,  2.183763,  8.034732 )     2.21365356
  WF centre and spread   31  (  8.385359,  2.168697,  8.029424 )     2.41409957
  WF centre and spread   32  (  8.390258,  2.170565,  8.024090 )     2.44971942
  WF centre and spread   33  (  5.467746,  0.932494,  5.908578 )     2.51234088
  WF centre and spread   34  (  5.464008,  0.935433,  5.908579 )     2.55803152
  WF centre and spread   35  (  5.347157,  0.953530,  5.908587 )     2.19046625
  WF centre and spread   36  (  5.329799,  0.956278,  5.908587 )     2.21919834
  WF centre and spread   37  (  5.408952,  1.015937,  5.908587 )     2.28365880
  WF centre and spread   38  (  5.400633,  1.029381,  5.908587 )     2.29363104
  WF centre and spread   39  (  8.370558, -0.932494,  5.908588 )     2.51234088
  WF centre and spread   40  (  8.374296, -0.935433,  5.908587 )     2.55803152
  WF centre and spread   41  (  8.491148, -0.953530,  5.908580 )     2.19046625
  WF centre and spread   42  (  8.508506, -0.956278,  5.908580 )     2.21919834
  WF centre and spread   43  (  8.429353, -1.015937,  5.908579 )     2.28365880
  WF centre and spread   44  (  8.437671, -1.029381,  5.908579 )     2.29363104
  WF centre and spread   45  (  5.423565, -2.216727,  3.808239 )     2.38877667
  WF centre and spread   46  (  5.416414, -2.223015,  3.817076 )     2.40953511
  WF centre and spread   47  (  5.347132, -2.182435,  3.780092 )     2.18543219
  WF centre and spread   48  (  5.329803, -2.183763,  3.782434 )     2.21365377
  WF centre and spread   49  (  5.452945, -2.168697,  3.787742 )     2.41409978
  WF centre and spread   50  (  5.448047, -2.170565,  3.793076 )     2.44971964
  WF centre and spread   51  (  8.414740, -1.194608,  9.716828 )     2.38814728
  WF centre and spread   52  (  8.421892, -1.188317,  9.725667 )     2.40886063
  WF centre and spread   53  (  8.491171, -1.228880,  9.688673 )     2.18514398
  WF centre and spread   54  (  8.508501, -1.227551,  9.691014 )     2.21340200
  WF centre and spread   55  (  8.385360, -1.242621,  9.696325 )     2.41376753
  WF centre and spread   56  (  8.390258, -1.240753,  9.701659 )     2.44931651
  Sum of centres and spreads (387.472526,  0.000000,330.880649 )   104.90456854
 
      2    -0.671E+00     2.0313038917      104.9045777245       0.51  <-- CONV
        O_D=      0.0073700 O_OD=      4.5091524 O_TOT=    104.9045777 <-- SPRD
 Delta: O_D=  0.2093925E-03 O_OD= -0.6716503E+00 O_TOT= -0.6714409E+00 <-- DLTA
 ------------------------------------------------------------------------------
 Cycle:      3
  WF centre and spread    1  (  6.919152, -0.000000,  3.936072 )     0.82952937
  WF centre and spread    2  (  6.919153, -0.000001,  3.937672 )     1.25323199
  WF centre and spread    3  (  6.919152,  0.000000,  3.943598 )     0.87240811
  WF centre and spread    4  (  6.919152, -0.000001,  3.946901 )     1.15800087
  WF centre and spread    5  (  6.919152,  0.000001,  3.944229 )     0.84792568
  WF centre and spread    6  (  6.919152,  0.000001,  3.947128 )     1.26655937
  WF centre and spread    7  (  6.919152,  0.000000,  3.936859 )     0.79156857
  WF centre and spread    8  (  6.919152, -0.000000,  3.932396 )     1.22834526
  WF centre and spread    9  (  6.919152,  0.000001,  3.934542 )     0.87047140
  WF centre and spread   10  (  6.919152,  0.000002,  3.931272 )     1.15497958
  WF centre and spread   11  (  6.919152,  0.000000,  7.881094 )     0.82952917
  WF centre and spread   12  (  6.919152,  0.000001,  7.879494 )     1.25323179
  WF centre and spread   13  (  6.919153, -0.000000,  7.873568 )     0.87240791
  WF centre and spread   14  (  6.919153,  0.000001,  7.870265 )     1.15800068
  WF centre and spread   15  (  6.919152, -0.000001,  7.872937 )     0.84792548
  WF centre and spread   16  (  6.919152, -0.000001,  7.870038 )     1.26655917
  WF centre and spread   17  (  6.919152, -0.000000,  7.880307 )     0.79156837
  WF centre and spread   18  (  6.919152,  0.000000,  7.884770 )     1.22834506
  WF centre and spread   19  (  6.919152, -0.000001,  7.882624 )     0.87047120
  WF centre and spread   20  (  6.919152, -0.000002,  7.885894 )     1.15497939
  WF centre and spread   21  (  5.422258,  1.194440,  2.099776 )     2.37624827
  WF centre and spread   22  (  5.415742,  1.188385,  2.091158 )     2.39902222
  WF centre and spread   23  (  5.345990,  1.228405,  2.127649 )     2.17474853
  WF centre and spread   24  (  5.329277,  1.227230,  2.125576 )     2.20436314
  WF centre and spread   25  (  5.451561,  1.242056,  2.120148 )     2.39939207
  WF centre and spread   26  (  5.447230,  1.240227,  2.115074 )     2.43479109
  WF centre and spread   27  (  8.416046,  2.216895,  8.008368 )     2.37697011
  WF centre and spread   28  (  8.422562,  2.222948,  7.999751 )     2.39976951
  WF centre and spread   29  (  8.492315,  2.182908,  8.036227 )     2.17500256
  WF centre and spread   30  (  8.509029,  2.184083,  8.034154 )     2.20458630
  WF centre and spread   31  (  8.386743,  2.169261,  8.028729 )     2.39975922
  WF centre and spread   32  (  8.391075,  2.171090,  8.023655 )     2.43522119
  WF centre and spread   33  (  5.466341,  0.933516,  5.908580 )     2.49748254
  WF centre and spread   34  (  5.463135,  0.936242,  5.908581 )     2.54191669
  WF centre and spread   35  (  5.346013,  0.954503,  5.908586 )     2.18009942
  WF centre and spread   36  (  5.329273,  0.956940,  5.908586 )     2.21022463
  WF centre and spread   37  (  5.407676,  1.016318,  5.908588 )     2.27241324
  WF centre and spread   38  (  5.400029,  1.029405,  5.908589 )     2.28558407
  WF centre and spread   39  (  8.371963, -0.933516,  5.908586 )     2.49748254
  WF centre and spread   40  (  8.375169, -0.936242,  5.908585 )     2.54191669
  WF centre and spread   41  (  8.492292, -0.954503,  5.908580 )     2.18009942
  WF centre and spread   42  (  8.509032, -0.956940,  5.908580 )     2.21022463
  WF centre and spread   43  (  8.430628, -1.016318,  5.908578 )     2.27241324
  WF centre and spread   44  (  8.438275, -1.029405,  5.908577 )     2.28558407
  WF centre and spread   45  (  5.422258, -2.216895,  3.808798 )     2.37697032
  WF centre and spread   46  (  5.415743, -2.222948,  3.817415 )     2.39976972
  WF centre and spread   47  (  5.345989, -2.182908,  3.780939 )     2.17500277
  WF centre and spread   48  (  5.329276, -2.184083,  3.783012 )     2.20458651
  WF centre and spread   49  (  5.451561, -2.169261,  3.788437 )     2.39975944
  WF centre and spread   50  (  5.447230, -2.171090,  3.793511 )     2.43522140
  WF centre and spread   51  (  8.416046, -1.194440,  9.717390 )     2.37624789
  WF centre and spread   52  (  8.422562, -1.188385,  9.726008 )     2.39902184
  WF centre and spread   53  (  8.492314, -1.228405,  9.689517 )     2.17474815
  WF centre and spread   54  (  8.509028, -1.227230,  9.691590 )     2.20436276
  WF centre and spread   55  (  8.386744, -1.242056,  9.697018 )     2.39939169
  WF centre and spread   56  (  8.391075, -1.240227,  9.702092 )     2.43479071
  Sum of centres and spreads (387.472526,  0.000000,330.880649 )   104.48122702
 
      3    -0.423E+00     1.5542289003      104.4812362123       0.76  <-- CONV
        O_D=      0.0065819 O_OD=      4.0865990 O_TOT=    104.4812362 <-- SPRD
 Delta: O_D= -0.7880909E-03 O_OD= -0.4225534E+00 O_TOT= -0.4233415E+00 <-- DLTA
 ------------------------------------------------------------------------------
 Cycle:      4
  WF centre and spread    1  (  6.919152, -0.000000,  3.936047 )     0.82822332
  WF centre and spread    2  (  6.919152, -0.000001,  3.937439 )     1.26066734
  WF centre and spread    3  (  6.919152,  0.000000,  3.943667 )     0.87653984
  WF centre and spread    4  (  6.919151, -0.000001,  3.947097 )     1.16963425
  WF centre and spread    5  (  6.919152,  0.000001,  3.944234 )     0.84828924
  WF centre and spread    6  (  6.919152,  0.000001,  3.947477 )     1.27573328
  WF centre and spread    7  (  6.919152, -0.000000,  3.936865 )     0.78721327
  WF centre and spread    8  (  6.919152, -0.000000,  3.932274 )     1.23248178
  WF centre and spread    9  (  6.919152,  0.000001,  3.934489 )     0.87431542
  WF centre and spread   10  (  6.919153,  0.000003,  3.931097 )     1.16616199
  WF centre and spread   11  (  6.919152,  0.000000,  7.881119 )     0.82822313
  WF centre and spread   12  (  6.919152,  0.000001,  7.879727 )     1.26066714
  WF centre and spread   13  (  6.919153, -0.000000,  7.873499 )     0.87653965
  WF centre and spread   14  (  6.919153,  0.000001,  7.870069 )     1.16963405
  WF centre and spread   15  (  6.919152, -0.000001,  7.872932 )     0.84828904
  WF centre and spread   16  (  6.919152, -0.000001,  7.869689 )     1.27573308
  WF centre and spread   17  (  6.919152,  0.000000,  7.880301 )     0.78721307
  WF centre and spread   18  (  6.919152,  0.000000,  7.884892 )     1.23248158
  WF centre and spread   19  (  6.919152, -0.000001,  7.882677 )     0.87431522
  WF centre and spread   20  (  6.919152, -0.000003,  7.886069 )     1.16616179
  WF centre and spread   21  (  5.420994,  1.194280,  2.099117 )     2.36272520
  WF centre and spread   22  (  5.415063,  1.188459,  2.090699 )     2.38651233
  WF centre and spread   23  (  5.345016,  1.227874,  2.126700 )     2.16356915
  WF centre and spread   24  (  5.328948,  1.226839,  2.124870 )     2.19407756
  WF centre and spread   25  (  5.450197,  1.241373,  2.119386 )     2.38320185
  WF centre and spread   26  (  5.446403,  1.239570,  2.114575 )     2.41739038
  WF centre and spread   27  (  8.417310,  2.217054,  8.007706 )     2.36338975
  WF centre and spread   28  (  8.423241,  2.222872,  7.999290 )     2.38715414
  WF centre and spread   29  (  8.493289,  2.183440,  8.035279 )     2.16387262
  WF centre and spread   30  (  8.509358,  2.184474,  8.033448 )     2.19433484
  WF centre and spread   31  (  8.388107,  2.169942,  8.027966 )     2.38358060
  WF centre and spread   32  (  8.391901,  2.171745,  8.023155 )     2.41782551
  WF centre and spread   33  (  5.464930,  0.934698,  5.908577 )     2.48062345
  WF centre and spread   34  (  5.462233,  0.937207,  5.908578 )     2.52273690
  WF centre and spread   35  (  5.345030,  0.955605,  5.908588 )     2.16893996
  WF centre and spread   36  (  5.328935,  0.957764,  5.908588 )     2.19996299
  WF centre and spread   37  (  5.406464,  1.016806,  5.908588 )     2.25968364
  WF centre and spread   38  (  5.399430,  1.029570,  5.908589 )     2.27504959
  WF centre and spread   39  (  8.373375, -0.934698,  5.908589 )     2.48062345
  WF centre and spread   40  (  8.376072, -0.937207,  5.908588 )     2.52273690
  WF centre and spread   41  (  8.493274, -0.955605,  5.908578 )     2.16893996
  WF centre and spread   42  (  8.509369, -0.957764,  5.908578 )     2.19996299
  WF centre and spread   43  (  8.431841, -1.016806,  5.908578 )     2.25968364
  WF centre and spread   44  (  8.438875, -1.029570,  5.908577 )     2.27504959
  WF centre and spread   45  (  5.420994, -2.217054,  3.809460 )     2.36338996
  WF centre and spread   46  (  5.415063, -2.222872,  3.817876 )     2.38715435
  WF centre and spread   47  (  5.345015, -2.183440,  3.781887 )     2.16387283
  WF centre and spread   48  (  5.328947, -2.184474,  3.783718 )     2.19433506
  WF centre and spread   49  (  5.450197, -2.169942,  3.789200 )     2.38358081
  WF centre and spread   50  (  5.446403, -2.171745,  3.794011 )     2.41782572
  WF centre and spread   51  (  8.417311, -1.194280,  9.718049 )     2.36272482
  WF centre and spread   52  (  8.423242, -1.188459,  9.726467 )     2.38651194
  WF centre and spread   53  (  8.493289, -1.227874,  9.690466 )     2.16356877
  WF centre and spread   54  (  8.509357, -1.226839,  9.692296 )     2.19407718
  WF centre and spread   55  (  8.388107, -1.241373,  9.697780 )     2.38320147
  WF centre and spread   56  (  8.391901, -1.239570,  9.702591 )     2.41739000
  Sum of centres and spreads (387.472526,  0.000000,330.880649 )   104.08777736
 
      4    -0.393E+00     1.5065567722      104.0877865518       1.01  <-- CONV
        O_D=      0.0081415 O_OD=      3.6915898 O_TOT=    104.0877866 <-- SPRD
 Delta: O_D=  0.1559533E-02 O_OD= -0.3950092E+00 O_TOT= -0.3934497E+00 <-- DLTA
 ------------------------------------------------------------------------------
 Cycle:      5
  WF centre and spread    1  (  6.919152, -0.000000,  3.936082 )     0.82997290
  WF centre and spread    2  (  6.919152, -0.000001,  3.937339 )     1.26860391
  WF centre and spread    3  (  6.919152,  0.000000,  3.943751 )     0.88263129
  WF centre and spread    4  (  6.919151, -0.000001,  3.947302 )     1.18151690
  WF centre and spread    5  (  6.919152,  0.000000,  3.944198 )     0.85150288
  WF centre and spread    6  (  6.919152,  0.000001,  3.947687 )     1.28511139
  WF centre and spread    7  (  6.919152, -0.000000,  3.936855 )     0.78634383
  WF centre and spread    8  (  6.919152, -0.000001,  3.932153 )     1.23797751
  WF centre and spread    9  (  6.919152,  0.000001,  3.934413 )     0.87996010
  WF centre and spread   10  (  6.919153,  0.000003,  3.930902 )     1.17743990
  WF centre and spread   11  (  6.919152,  0.000000,  7.881084 )     0.82997270
  WF centre and spread   12  (  6.919152,  0.000001,  7.879827 )     1.26860372
  WF centre and spread   13  (  6.919153, -0.000000,  7.873415 )     0.88263110
  WF centre and spread   14  (  6.919153,  0.000001,  7.869864 )     1.18151671
  WF centre and spread   15  (  6.919152, -0.000000,  7.872968 )     0.85150269
  WF centre and spread   16  (  6.919152, -0.000001,  7.869479 )     1.28511119
  WF centre and spread   17  (  6.919152,  0.000000,  7.880311 )     0.78634363
  WF centre and spread   18  (  6.919152,  0.000001,  7.885013 )     1.23797731
  WF centre and spread   19  (  6.919152, -0.000001,  7.882753 )     0.87995991
  WF centre and spread   20  (  6.919152, -0.000003,  7.886264 )     1.17743970
  WF centre and spread   21  (  5.420184,  1.194223,  2.098695 )     2.35236007
  WF centre and spread   22  (  5.414589,  1.188574,  2.090414 )     2.37550139
  WF centre and spread   23  (  5.344528,  1.227492,  2.126028 )     2.15503611
  WF centre and spread   24  (  5.328878,  1.226536,  2.124337 )     2.18499015
  WF centre and spread   25  (  5.449307,  1.240888,  2.118858 )     2.37085031
  WF centre and spread   26  (  5.445849,  1.239098,  2.114243 )     2.40315363
  WF centre and spread   27  (  8.418120,  2.217109,  8.007285 )     2.35306201
  WF centre and spread   28  (  8.423715,  2.222756,  7.999006 )     2.37617555
  WF centre and spread   29  (  8.493777,  2.183821,  8.034606 )     2.15531298
  WF centre and spread   30  (  8.509427,  2.184775,  8.032915 )     2.18523173
  WF centre and spread   31  (  8.388998,  2.170425,  8.027437 )     2.37119415
  WF centre and spread   32  (  8.392456,  2.172215,  8.022822 )     2.40355154
  WF centre and spread   33  (  5.463983,  0.935553,  5.908578 )     2.46774232
  WF centre and spread   34  (  5.461616,  0.937899,  5.908578 )     2.50729768
  WF centre and spread   35  (  5.344536,  0.956391,  5.908588 )     2.16036081
  WF centre and spread   36  (  5.328857,  0.958394,  5.908588 )     2.19083461
  WF centre and spread   37  (  5.405704,  1.017050,  5.908588 )     2.24999830
  WF centre and spread   38  (  5.399010,  1.029591,  5.908589 )     2.26540610
  WF centre and spread   39  (  8.374321, -0.935553,  5.908588 )     2.46774232
  WF centre and spread   40  (  8.376688, -0.937899,  5.908588 )     2.50729768
  WF centre and spread   41  (  8.493768, -0.956391,  5.908578 )     2.16036081
  WF centre and spread   42  (  8.509448, -0.958394,  5.908578 )     2.19083461
  WF centre and spread   43  (  8.432600, -1.017050,  5.908578 )     2.24999830
  WF centre and spread   44  (  8.439294, -1.029591,  5.908577 )     2.26540610
  WF centre and spread   45  (  5.420184, -2.217109,  3.809881 )     2.35306222
  WF centre and spread   46  (  5.414589, -2.222756,  3.818160 )     2.37617576
  WF centre and spread   47  (  5.344528, -2.183821,  3.782560 )     2.15531319
  WF centre and spread   48  (  5.328877, -2.184775,  3.784251 )     2.18523195
  WF centre and spread   49  (  5.449306, -2.170425,  3.789730 )     2.37119436
  WF centre and spread   50  (  5.445849, -2.172215,  3.794344 )     2.40355175
  WF centre and spread   51  (  8.418121, -1.194223,  9.718471 )     2.35235969
  WF centre and spread   52  (  8.423716, -1.188574,  9.726752 )     2.37550100
  WF centre and spread   53  (  8.493776, -1.227492,  9.691138 )     2.15503573
  WF centre and spread   54  (  8.509426, -1.226536,  9.692829 )     2.18498977
  WF centre and spread   55  (  8.388998, -1.240888,  9.698308 )     2.37084993
  WF centre and spread   56  (  8.392455, -1.239098,  9.702923 )     2.40315325
  Sum of centres and spreads (387.472526,  0.000000,330.880649 )   103.81823716
 
      5    -0.270E+00     1.3181017233      103.8182463433       1.25  <-- CONV
        O_D=      0.0076030 O_OD=      3.4225881 O_TOT=    103.8182463 <-- SPRD
 Delta: O_D= -0.5385053E-03 O_OD= -0.2690017E+00 O_TOT= -0.2695402E+00 <-- DLTA
 ------------------------------------------------------------------------------
 Cycle:      6
  WF centre and spread    1  (  6.919152, -0.000000,  3.936150 )     0.83327297
  WF centre and spread    2  (  6.919152, -0.000001,  3.937303 )     1.27645338
  WF centre and spread    3  (  6.919152,  0.000000,  3.943842 )     0.88917587
  WF centre and spread    4  (  6.919152, -0.000001,  3.947499 )     1.19302972
  WF centre and spread    5  (  6.919152, -0.000000,  3.944146 )     0.85603356
  WF centre and spread    6  (  6.919152, -0.000000,  3.947824 )     1.29422946
  WF centre and spread    7  (  6.919152, -0.000000,  3.936833 )     0.78774652
  WF centre and spread    8  (  6.919152, -0.000001,  3.932049 )     1.24392679
  WF centre and spread    9  (  6.919152,  0.000001,  3.934318 )     0.88612755
  WF centre and spread   10  (  6.919153,  0.000003,  3.930701 )     1.18847645
  WF centre and spread   11  (  6.919152,  0.000000,  7.881016 )     0.83327277
  WF centre and spread   12  (  6.919153,  0.000001,  7.879863 )     1.27645318
  WF centre and spread   13  (  6.919152, -0.000000,  7.873324 )     0.88917568
  WF centre and spread   14  (  6.919153,  0.000001,  7.869667 )     1.19302952
  WF centre and spread   15  (  6.919152,  0.000000,  7.873020 )     0.85603336
  WF centre and spread   16  (  6.919152,  0.000000,  7.869342 )     1.29422927
  WF centre and spread   17  (  6.919152,  0.000000,  7.880333 )     0.78774632
  WF centre and spread   18  (  6.919152,  0.000001,  7.885117 )     1.24392659
  WF centre and spread   19  (  6.919152, -0.000001,  7.882848 )     0.88612736
  WF centre and spread   20  (  6.919152, -0.000003,  7.886465 )     1.18847625
  WF centre and spread   21  (  5.419665,  1.194234,  2.098506 )     2.34409992
  WF centre and spread   22  (  5.414250,  1.188734,  2.090356 )     2.36571238
  WF centre and spread   23  (  5.344352,  1.227234,  2.125578 )     2.14813061
  WF centre and spread   24  (  5.328958,  1.226328,  2.123974 )     2.17670760
  WF centre and spread   25  (  5.448724,  1.240569,  2.118525 )     2.36090579
  WF centre and spread   26  (  5.445478,  1.238800,  2.114091 )     2.39104850
  WF centre and spread   27  (  8.418637,  2.217091,  8.007095 )     2.34483317
  WF centre and spread   28  (  8.424053,  2.222588,  7.998946 )     2.36640615
  WF centre and spread   29  (  8.493952,  2.184079,  8.034157 )     2.14839545
  WF centre and spread   30  (  8.509347,  2.184984,  8.032553 )     2.17693166
  WF centre and spread   31  (  8.389581,  2.170743,  8.027104 )     2.36125286
  WF centre and spread   32  (  8.392827,  2.172511,  8.022671 )     2.39143783
  WF centre and spread   33  (  5.463338,  0.936148,  5.908580 )     2.45712605
  WF centre and spread   34  (  5.461191,  0.938334,  5.908581 )     2.49409196
  WF centre and spread   35  (  5.344358,  0.956909,  5.908587 )     2.15347841
  WF centre and spread   36  (  5.328932,  0.958817,  5.908587 )     2.18255363
  WF centre and spread   37  (  5.405238,  1.017051,  5.908588 )     2.24238198
  WF centre and spread   38  (  5.398711,  1.029387,  5.908589 )     2.25666078
  WF centre and spread   39  (  8.374967, -0.936148,  5.908586 )     2.45712605
  WF centre and spread   40  (  8.377114, -0.938334,  5.908585 )     2.49409196
  WF centre and spread   41  (  8.493946, -0.956909,  5.908579 )     2.15347841
  WF centre and spread   42  (  8.509373, -0.958817,  5.908579 )     2.18255363
  WF centre and spread   43  (  8.433067, -1.017051,  5.908578 )     2.24238198
  WF centre and spread   44  (  8.439593, -1.029387,  5.908577 )     2.25666078
  WF centre and spread   45  (  5.419667, -2.217091,  3.810071 )     2.34483338
  WF centre and spread   46  (  5.414252, -2.222588,  3.818220 )     2.36640636
  WF centre and spread   47  (  5.344353, -2.184079,  3.783009 )     2.14839566
  WF centre and spread   48  (  5.328958, -2.184984,  3.784613 )     2.17693187
  WF centre and spread   49  (  5.448723, -2.170743,  3.790062 )     2.36125307
  WF centre and spread   50  (  5.445477, -2.172511,  3.794495 )     2.39143804
  WF centre and spread   51  (  8.418639, -1.194234,  9.718660 )     2.34409954
  WF centre and spread   52  (  8.424054, -1.188734,  9.726810 )     2.36571200
  WF centre and spread   53  (  8.493952, -1.227234,  9.691588 )     2.14813023
  WF centre and spread   54  (  8.509346, -1.226328,  9.693192 )     2.17670723
  WF centre and spread   55  (  8.389581, -1.240569,  9.698641 )     2.36090541
  WF centre and spread   56  (  8.392827, -1.238800,  9.703075 )     2.39104812
  Sum of centres and spreads (387.472526,  0.000000,330.880649 )   103.62125101
 
      6    -0.197E+00     1.1070562231      103.6212602006       1.50  <-- CONV
        O_D=      0.0047167 O_OD=      3.2284882 O_TOT=    103.6212602 <-- SPRD
 Delta: O_D= -0.2886265E-02 O_OD= -0.1940999E+00 O_TOT= -0.1969861E+00 <-- DLTA
 ------------------------------------------------------------------------------
 Cycle:      7
  WF centre and spread    1  (  6.919152, -0.000000,  3.936161 )     0.83285593
  WF centre and spread    2  (  6.919152, -0.000001,  3.937307 )     1.27608726
  WF centre and spread    3  (  6.919152,  0.000000,  3.943847 )     0.88871493
  WF centre and spread    4  (  6.919152, -0.000001,  3.947515 )     1.19271313
  WF centre and spread    5  (  6.919152,  0.000000,  3.944135 )     0.85564777
  WF centre and spread    6  (  6.919152,  0.000001,  3.947824 )     1.29387837
  WF centre and spread    7  (  6.919152, -0.000000,  3.936834 )     0.78753582
  WF centre and spread    8  (  6.919152, -0.000001,  3.932045 )     1.24370646
  WF centre and spread    9  (  6.919152,  0.000001,  3.934312 )     0.88571457
  WF centre and spread   10  (  6.919153,  0.000003,  3.930683 )     1.18823229
  WF centre and spread   11  (  6.919152,  0.000000,  7.881005 )     0.83285573
  WF centre and spread   12  (  6.919152,  0.000001,  7.879860 )     1.27608706
  WF centre and spread   13  (  6.919153, -0.000000,  7.873319 )     0.88871474
  WF centre and spread   14  (  6.919153,  0.000001,  7.869651 )     1.19271293
  WF centre and spread   15  (  6.919152, -0.000000,  7.873031 )     0.85564757
  WF centre and spread   16  (  6.919152, -0.000001,  7.869342 )     1.29387817
  WF centre and spread   17  (  6.919152,  0.000000,  7.880332 )     0.78753563
  WF centre and spread   18  (  6.919152,  0.000001,  7.885121 )     1.24370626
  WF centre and spread   19  (  6.919152, -0.000001,  7.882854 )     0.88571437
  WF centre and spread   20  (  6.919152, -0.000003,  7.886483 )     1.18823209
  WF centre and spread   21  (  5.419615,  1.194239,  2.098516 )     2.34222289
  WF centre and spread   22  (  5.414197,  1.188762,  2.090382 )     2.36326714
  WF centre and spread   23  (  5.344341,  1.227225,  2.125564 )     2.14679083
  WF centre and spread   24  (  5.328945,  1.226325,  2.123972 )     2.17489157
  WF centre and spread   25  (  5.448662,  1.240565,  2.118521 )     2.35888978
  WF centre and spread   26  (  5.445416,  1.238799,  2.114121 )     2.38840144
  WF centre and spread   27  (  8.418688,  2.217088,  8.007106 )     2.34288879
  WF centre and spread   28  (  8.424106,  2.222563,  7.998973 )     2.36390311
  WF centre and spread   29  (  8.493964,  2.184088,  8.034142 )     2.14705395
  WF centre and spread   30  (  8.509360,  2.184987,  8.032551 )     2.17511325
  WF centre and spread   31  (  8.389642,  2.170748,  8.027101 )     2.35919632
  WF centre and spread   32  (  8.392889,  2.172513,  8.022701 )     2.38874464
  WF centre and spread   33  (  5.463262,  0.936165,  5.908579 )     2.45447529
  WF centre and spread   34  (  5.461116,  0.938318,  5.908580 )     2.49078040
  WF centre and spread   35  (  5.344348,  0.956924,  5.908587 )     2.15214539
  WF centre and spread   36  (  5.328919,  0.958818,  5.908587 )     2.18075198
  WF centre and spread   37  (  5.405199,  1.017031,  5.908587 )     2.24103380
  WF centre and spread   38  (  5.398669,  1.029344,  5.908589 )     2.25479273
  WF centre and spread   39  (  8.375043, -0.936165,  5.908587 )     2.45447529
  WF centre and spread   40  (  8.377188, -0.938318,  5.908586 )     2.49078040
  WF centre and spread   41  (  8.493957, -0.956924,  5.908579 )     2.15214539
  WF centre and spread   42  (  8.509385, -0.958818,  5.908579 )     2.18075198
  WF centre and spread   43  (  8.433105, -1.017031,  5.908579 )     2.24103380
  WF centre and spread   44  (  8.439635, -1.029344,  5.908578 )     2.25479273
  WF centre and spread   45  (  5.419616, -2.217088,  3.810060 )     2.34288900
  WF centre and spread   46  (  5.414198, -2.222563,  3.818193 )     2.36390332
  WF centre and spread   47  (  5.344341, -2.184088,  3.783024 )     2.14705417
  WF centre and spread   48  (  5.328944, -2.184987,  3.784615 )     2.17511346
  WF centre and spread   49  (  5.448662, -2.170748,  3.790065 )     2.35919653
  WF centre and spread   50  (  5.445416, -2.172513,  3.794465 )     2.38874486
  WF centre and spread   51  (  8.418689, -1.194239,  9.718651 )     2.34222251
  WF centre and spread   52  (  8.424107, -1.188762,  9.726784 )     2.36326675
  WF centre and spread   53  (  8.493963, -1.227225,  9.691602 )     2.14679045
  WF centre and spread   54  (  8.509360, -1.226325,  9.693194 )     2.17489119
  WF centre and spread   55  (  8.389642, -1.240565,  9.698645 )     2.35888941
  WF centre and spread   56  (  8.392888, -1.238799,  9.703046 )     2.38840106
  Sum of centres and spreads (387.472526,  0.000000,330.880649 )   103.54085674
 
      7    -0.804E-01     0.9114061674      103.5408659239       1.75  <-- CONV
        O_D=      0.0043345 O_OD=      3.1484762 O_TOT=    103.5408659 <-- SPRD
 Delta: O_D= -0.3822583E-03 O_OD= -0.8001202E-01 O_TOT= -0.8039428E-01 <-- DLTA
 ------------------------------------------------------------------------------
 Cycle:      8
  WF centre and spread    1  (  6.919152, -0.000000,  3.936183 )     0.83299792
  WF centre and spread    2  (  6.919152, -0.000001,  3.937301 )     1.27722106
  WF centre and spread    3  (  6.919152,  0.000000,  3.943859 )     0.88872070
  WF centre and spread    4  (  6.919152, -0.000001,  3.947557 )     1.19397502
  WF centre and spread    5  (  6.919152,  0.000001,  3.944111 )     0.85580749
  WF centre and spread    6  (  6.919152,  0.000001,  3.947834 )     1.29510952
  WF centre and spread    7  (  6.919152, -0.000000,  3.936837 )     0.78773598
  WF centre and spread    8  (  6.919152, -0.000001,  3.932040 )     1.24473065
  WF centre and spread    9  (  6.919153,  0.000001,  3.934296 )     0.88574430
  WF centre and spread   10  (  6.919153,  0.000002,  3.930637 )     1.18952426
  WF centre and spread   11  (  6.919152,  0.000000,  7.880983 )     0.83299772
  WF centre and spread   12  (  6.919152,  0.000001,  7.879865 )     1.27722087
  WF centre and spread   13  (  6.919153, -0.000000,  7.873307 )     0.88872051
  WF centre and spread   14  (  6.919153,  0.000001,  7.869609 )     1.19397483
  WF centre and spread   15  (  6.919152, -0.000001,  7.873055 )     0.85580730
  WF centre and spread   16  (  6.919152, -0.000001,  7.869332 )     1.29510933
  WF centre and spread   17  (  6.919152,  0.000000,  7.880329 )     0.78773578
  WF centre and spread   18  (  6.919152,  0.000001,  7.885126 )     1.24473045
  WF centre and spread   19  (  6.919152, -0.000001,  7.882870 )     0.88574410
  WF centre and spread   20  (  6.919152, -0.000002,  7.886529 )     1.18952406
  WF centre and spread   21  (  5.419519,  1.194251,  2.098523 )     2.34076181
  WF centre and spread   22  (  5.414103,  1.188819,  2.090414 )     2.36100077
  WF centre and spread   23  (  5.344341,  1.227195,  2.125518 )     2.14497878
  WF centre and spread   24  (  5.328949,  1.226311,  2.123955 )     2.17222824
  WF centre and spread   25  (  5.448535,  1.240545,  2.118506 )     2.35658164
  WF centre and spread   26  (  5.445300,  1.238785,  2.114177 )     2.38531275
  WF centre and spread   27  (  8.418785,  2.217078,  8.007114 )     2.34139852
  WF centre and spread   28  (  8.424201,  2.222507,  7.999006 )     2.36161445
  WF centre and spread   29  (  8.493964,  2.184118,  8.034097 )     2.14524721
  WF centre and spread   30  (  8.509356,  2.185001,  8.032533 )     2.17245305
  WF centre and spread   31  (  8.389770,  2.170768,  8.027085 )     2.35687208
  WF centre and spread   32  (  8.393005,  2.172528,  8.022757 )     2.38563994
  WF centre and spread   33  (  5.463106,  0.936210,  5.908578 )     2.45149573
  WF centre and spread   34  (  5.460974,  0.938286,  5.908579 )     2.48702660
  WF centre and spread   35  (  5.344349,  0.956974,  5.908588 )     2.15034051
  WF centre and spread   36  (  5.328925,  0.958835,  5.908588 )     2.17808197
  WF centre and spread   37  (  5.405125,  1.016993,  5.908587 )     2.24012926
  WF centre and spread   38  (  5.398595,  1.029269,  5.908589 )     2.25309681
  WF centre and spread   39  (  8.375198, -0.936210,  5.908588 )     2.45149573
  WF centre and spread   40  (  8.377330, -0.938286,  5.908587 )     2.48702660
  WF centre and spread   41  (  8.493955, -0.956974,  5.908578 )     2.15034051
  WF centre and spread   42  (  8.509379, -0.958835,  5.908578 )     2.17808197
  WF centre and spread   43  (  8.433180, -1.016993,  5.908579 )     2.24012926
  WF centre and spread   44  (  8.439710, -1.029269,  5.908577 )     2.25309681
  WF centre and spread   45  (  5.419519, -2.217078,  3.810052 )     2.34139873
  WF centre and spread   46  (  5.414103, -2.222507,  3.818160 )     2.36161466
  WF centre and spread   47  (  5.344341, -2.184118,  3.783069 )     2.14524743
  WF centre and spread   48  (  5.328949, -2.185001,  3.784633 )     2.17245326
  WF centre and spread   49  (  5.448535, -2.170768,  3.790081 )     2.35687230
  WF centre and spread   50  (  5.445299, -2.172528,  3.794409 )     2.38564015
  WF centre and spread   51  (  8.418786, -1.194251,  9.718643 )     2.34076143
  WF centre and spread   52  (  8.424202, -1.188819,  9.726752 )     2.36100039
  WF centre and spread   53  (  8.493964, -1.227195,  9.691648 )     2.14497840
  WF centre and spread   54  (  8.509355, -1.226311,  9.693211 )     2.17222786
  WF centre and spread   55  (  8.389770, -1.240545,  9.698660 )     2.35658126
  WF centre and spread   56  (  8.393005, -1.238785,  9.702989 )     2.38531237
  Sum of centres and spreads (387.472526,  0.000000,330.880649 )   103.47165106
 
      8    -0.692E-01     0.6371987918      103.4716602499       2.00  <-- CONV
        O_D=      0.0040595 O_OD=      3.0795455 O_TOT=    103.4716602 <-- SPRD
 Delta: O_D= -0.2749861E-03 O_OD= -0.6893069E-01 O_TOT= -0.6920567E-01 <-- DLTA
 ------------------------------------------------------------------------------
 Cycle:      9
  WF centre and spread    1  (  6.919152, -0.000000,  3.936208 )     0.83392521
  WF centre and spread    2  (  6.919152, -0.000001,  3.937282 )     1.27997880
  WF centre and spread    3  (  6.919152, -0.000000,  3.943876 )     0.88976091
  WF centre and spread    4  (  6.919152, -0.000001,  3.947610 )     1.19673280
  WF centre and spread    5  (  6.919152,  0.000000,  3.944079 )     0.85700394
  WF centre and spread    6  (  6.919152,  0.000001,  3.947852 )     1.29830279
  WF centre and spread    7  (  6.919152, -0.000000,  3.936844 )     0.78839527
  WF centre and spread    8  (  6.919153, -0.000001,  3.932036 )     1.24687830
  WF centre and spread    9  (  6.919153,  0.000001,  3.934273 )     0.88680284
  WF centre and spread   10  (  6.919153,  0.000003,  3.930579 )     1.19228603
  WF centre and spread   11  (  6.919152,  0.000000,  7.880958 )     0.83392501
  WF centre and spread   12  (  6.919152,  0.000001,  7.879884 )     1.27997860
  WF centre and spread   13  (  6.919153,  0.000000,  7.873290 )     0.88976072
  WF centre and spread   14  (  6.919153,  0.000001,  7.869556 )     1.19673261
  WF centre and spread   15  (  6.919152, -0.000000,  7.873087 )     0.85700374
  WF centre and spread   16  (  6.919152, -0.000001,  7.869314 )     1.29830260
  WF centre and spread   17  (  6.919152,  0.000000,  7.880322 )     0.78839507
  WF centre and spread   18  (  6.919152,  0.000001,  7.885130 )     1.24687810
  WF centre and spread   19  (  6.919152, -0.000001,  7.882893 )     0.88680264
  WF centre and spread   20  (  6.919152, -0.000003,  7.886587 )     1.19228583
  WF centre and spread   21  (  5.419419,  1.194264,  2.098514 )     2.33912256
  WF centre and spread   22  (  5.414011,  1.188874,  2.090416 )     2.35857510
  WF centre and spread   23  (  5.344367,  1.227148,  2.125443 )     2.14283928
  WF centre and spread   24  (  5.328995,  1.226280,  2.123909 )     2.16923032
  WF centre and spread   25  (  5.448400,  1.240508,  2.118474 )     2.35410651
  WF centre and spread   26  (  5.445184,  1.238753,  2.114220 )     2.38207705
  WF centre and spread   27  (  8.418885,  2.217065,  8.007105 )     2.33974441
  WF centre and spread   28  (  8.424292,  2.222452,  7.999008 )     2.35918816
  WF centre and spread   29  (  8.493938,  2.184165,  8.034023 )     2.14311046
  WF centre and spread   30  (  8.509310,  2.185033,  8.032489 )     2.16946100
  WF centre and spread   31  (  8.389904,  2.170806,  8.027054 )     2.35438846
  WF centre and spread   32  (  8.393121,  2.172561,  8.022800 )     2.38239392
  WF centre and spread   33  (  5.462942,  0.936280,  5.908580 )     2.44815499
  WF centre and spread   34  (  5.460833,  0.938271,  5.908581 )     2.48291385
  WF centre and spread   35  (  5.344377,  0.957058,  5.908587 )     2.14818893
  WF centre and spread   36  (  5.328972,  0.958884,  5.908587 )     2.17507357
  WF centre and spread   37  (  5.405049,  1.016962,  5.908587 )     2.23923512
  WF centre and spread   38  (  5.398524,  1.029223,  5.908588 )     2.25142534
  WF centre and spread   39  (  8.375362, -0.936280,  5.908586 )     2.44815499
  WF centre and spread   40  (  8.377472, -0.938271,  5.908585 )     2.48291385
  WF centre and spread   41  (  8.493928, -0.957058,  5.908579 )     2.14818893
  WF centre and spread   42  (  8.509332, -0.958884,  5.908579 )     2.17507357
  WF centre and spread   43  (  8.433255, -1.016962,  5.908579 )     2.23923512
  WF centre and spread   44  (  8.439780, -1.029223,  5.908578 )     2.25142534
  WF centre and spread   45  (  5.419420, -2.217065,  3.810061 )     2.33974462
  WF centre and spread   46  (  5.414012, -2.222452,  3.818158 )     2.35918837
  WF centre and spread   47  (  5.344367, -2.184165,  3.783143 )     2.14311067
  WF centre and spread   48  (  5.328994, -2.185033,  3.784677 )     2.16946121
  WF centre and spread   49  (  5.448400, -2.170806,  3.790112 )     2.35438867
  WF centre and spread   50  (  5.445184, -2.172561,  3.794366 )     2.38239413
  WF centre and spread   51  (  8.418886, -1.194264,  9.718652 )     2.33912218
  WF centre and spread   52  (  8.424293, -1.188874,  9.726750 )     2.35857472
  WF centre and spread   53  (  8.493938, -1.227148,  9.691723 )     2.14283890
  WF centre and spread   54  (  8.509310, -1.226280,  9.693257 )     2.16922995
  WF centre and spread   55  (  8.389904, -1.240508,  9.698692 )     2.35410613
  WF centre and spread   56  (  8.393120, -1.238753,  9.702946 )     2.38207668
  Sum of centres and spreads (387.472526,  0.000000,330.880649 )   103.41858890
 
      9    -0.531E-01     0.5762350982      103.4185980907       2.25  <-- CONV
        O_D=      0.0040214 O_OD=      3.0265214 O_TOT=    103.4185981 <-- SPRD
 Delta: O_D= -0.3806539E-04 O_OD= -0.5302409E-01 O_TOT= -0.5306216E-01 <-- DLTA
 ------------------------------------------------------------------------------
 Cycle:     10
  WF centre and spread    1  (  6.919152, -0.000000,  3.936231 )     0.83540302
  WF centre and spread    2  (  6.919152, -0.000001,  3.937264 )     1.28323145
  WF centre and spread    3  (  6.919152, -0.000000,  3.943896 )     0.89166629
  WF centre and spread    4  (  6.919152, -0.000001,  3.947660 )     1.20015783
  WF centre and spread    5  (  6.919152,  0.000000,  3.944050 )     0.85882555
  WF centre and spread    6  (  6.919152,  0.000001,  3.947870 )     1.30204876
  WF centre and spread    7  (  6.919152, -0.000000,  3.936850 )     0.78933961
  WF centre and spread    8  (  6.919153, -0.000001,  3.932032 )     1.24928070
  WF centre and spread    9  (  6.919153,  0.000001,  3.934250 )     0.88867286
  WF centre and spread   10  (  6.919153,  0.000002,  3.930525 )     1.19565031
  WF centre and spread   11  (  6.919152,  0.000000,  7.880935 )     0.83540282
  WF centre and spread   12  (  6.919152,  0.000001,  7.879902 )     1.28323125
  WF centre and spread   13  (  6.919152,  0.000000,  7.873270 )     0.89166609
  WF centre and spread   14  (  6.919153,  0.000001,  7.869507 )     1.20015763
  WF centre and spread   15  (  6.919152, -0.000000,  7.873116 )     0.85882536
  WF centre and spread   16  (  6.919152, -0.000001,  7.869296 )     1.30204857
  WF centre and spread   17  (  6.919152,  0.000000,  7.880316 )     0.78933941
  WF centre and spread   18  (  6.919152,  0.000001,  7.885134 )     1.24928050
  WF centre and spread   19  (  6.919152, -0.000001,  7.882916 )     0.88867266
  WF centre and spread   20  (  6.919152, -0.000002,  7.886641 )     1.19565012
  WF centre and spread   21  (  5.419337,  1.194278,  2.098489 )     2.33747831
  WF centre and spread   22  (  5.413938,  1.188915,  2.090396 )     2.35624653
  WF centre and spread   23  (  5.344418,  1.227100,  2.125361 )     2.14097441
  WF centre and spread   24  (  5.329074,  1.226244,  2.123849 )     2.16674925
  WF centre and spread   25  (  5.448293,  1.240454,  2.118438 )     2.35180720
  WF centre and spread   26  (  5.445095,  1.238705,  2.114237 )     2.37905349
  WF centre and spread   27  (  8.418966,  2.217050,  8.007081 )     2.33807981
  WF centre and spread   28  (  8.424365,  2.222411,  7.998989 )     2.35683943
  WF centre and spread   29  (  8.493887,  2.184214,  8.033941 )     2.14124438
  WF centre and spread   30  (  8.509231,  2.185069,  8.032429 )     2.16697869
  WF centre and spread   31  (  8.390011,  2.170860,  8.027017 )     2.35207104
  WF centre and spread   32  (  8.393211,  2.172609,  8.022817 )     2.37935134
  WF centre and spread   33  (  5.462812,  0.936366,  5.908579 )     2.44513332
  WF centre and spread   34  (  5.460721,  0.938292,  5.908580 )     2.47912590
  WF centre and spread   35  (  5.344429,  0.957151,  5.908587 )     2.14632974
  WF centre and spread   36  (  5.329052,  0.958951,  5.908587 )     2.17259707
  WF centre and spread   37  (  5.404988,  1.016950,  5.908587 )     2.23830775
  WF centre and spread   38  (  5.398471,  1.029207,  5.908588 )     2.24984716
  WF centre and spread   39  (  8.375493, -0.936366,  5.908587 )     2.44513332
  WF centre and spread   40  (  8.377584, -0.938292,  5.908586 )     2.47912590
  WF centre and spread   41  (  8.493876, -0.957151,  5.908579 )     2.14632974
  WF centre and spread   42  (  8.509252, -0.958951,  5.908579 )     2.17259707
  WF centre and spread   43  (  8.433316, -1.016950,  5.908579 )     2.23830775
  WF centre and spread   44  (  8.439833, -1.029207,  5.908578 )     2.24984716
  WF centre and spread   45  (  5.419338, -2.217050,  3.810085 )     2.33808002
  WF centre and spread   46  (  5.413939, -2.222411,  3.818177 )     2.35683964
  WF centre and spread   47  (  5.344418, -2.184214,  3.783225 )     2.14124460
  WF centre and spread   48  (  5.329074, -2.185069,  3.784737 )     2.16697890
  WF centre and spread   49  (  5.448293, -2.170860,  3.790149 )     2.35207125
  WF centre and spread   50  (  5.445094, -2.172609,  3.794349 )     2.37935155
  WF centre and spread   51  (  8.418967, -1.194278,  9.718677 )     2.33747793
  WF centre and spread   52  (  8.424366, -1.188915,  9.726770 )     2.35624615
  WF centre and spread   53  (  8.493887, -1.227100,  9.691805 )     2.14097403
  WF centre and spread   54  (  8.509230, -1.226244,  9.693317 )     2.16674887
  WF centre and spread   55  (  8.390011, -1.240454,  9.698728 )     2.35180682
  WF centre and spread   56  (  8.393210, -1.238705,  9.702929 )     2.37905311
  Sum of centres and spreads (387.472526,  0.000000,330.880649 )   103.38497943
 
     10    -0.336E-01     0.4760504488      103.3849886208       2.50  <-- CONV
        O_D=      0.0040454 O_OD=      2.9928879 O_TOT=    103.3849886 <-- SPRD
 Delta: O_D=  0.2397101E-04 O_OD= -0.3363344E-01 O_TOT= -0.3360947E-01 <-- DLTA
 ------------------------------------------------------------------------------
 Cycle:     11
  WF centre and spread    1  (  6.919152, -0.000000,  3.936256 )     0.83718834
  WF centre and spread    2  (  6.919152, -0.000001,  3.937251 )     1.28647356
  WF centre and spread    3  (  6.919152, -0.000000,  3.943920 )     0.89428194
  WF centre and spread    4  (  6.919152, -0.000001,  3.947710 )     1.20415933
  WF centre and spread    5  (  6.919152,  0.000000,  3.944021 )     0.86099980
  WF centre and spread    6  (  6.919152,  0.000001,  3.947889 )     1.30577630
  WF centre and spread    7  (  6.919152, -0.000000,  3.936853 )     0.79047868
  WF centre and spread    8  (  6.919153, -0.000001,  3.932024 )     1.25169639
  WF centre and spread    9  (  6.919153,  0.000001,  3.934223 )     0.89121564
  WF centre and spread   10  (  6.919153,  0.000002,  3.930472 )     1.19954875
  WF centre and spread   11  (  6.919152,  0.000000,  7.880910 )     0.83718814
  WF centre and spread   12  (  6.919152,  0.000001,  7.879915 )     1.28647336
  WF centre and spread   13  (  6.919152,  0.000000,  7.873246 )     0.89428174
  WF centre and spread   14  (  6.919153,  0.000001,  7.869456 )     1.20415914
  WF centre and spread   15  (  6.919152, -0.000000,  7.873145 )     0.86099961
  WF centre and spread   16  (  6.919152, -0.000001,  7.869277 )     1.30577610
  WF centre and spread   17  (  6.919152,  0.000000,  7.880313 )     0.79047848
  WF centre and spread   18  (  6.919152,  0.000001,  7.885142 )     1.25169620
  WF centre and spread   19  (  6.919152, -0.000001,  7.882943 )     0.89121545
  WF centre and spread   20  (  6.919152, -0.000002,  7.886694 )     1.19954855
  WF centre and spread   21  (  5.419259,  1.194299,  2.098462 )     2.33582207
  WF centre and spread   22  (  5.413872,  1.188951,  2.090372 )     2.35397233
  WF centre and spread   23  (  5.344487,  1.227049,  2.125274 )     2.13927284
  WF centre and spread   24  (  5.329179,  1.226203,  2.123779 )     2.16455523
  WF centre and spread   25  (  5.448198,  1.240389,  2.118401 )     2.34951140
  WF centre and spread   26  (  5.445018,  1.238647,  2.114238 )     2.37604962
  WF centre and spread   27  (  8.419045,  2.217029,  8.007053 )     2.33641832
  WF centre and spread   28  (  8.424432,  2.222374,  7.998964 )     2.35455746
  WF centre and spread   29  (  8.493818,  2.184265,  8.033853 )     2.13954324
  WF centre and spread   30  (  8.509126,  2.185111,  8.032359 )     2.16478502
  WF centre and spread   31  (  8.390107,  2.170925,  8.026980 )     2.34977681
  WF centre and spread   32  (  8.393287,  2.172668,  8.022818 )     2.37634947
  WF centre and spread   33  (  5.462700,  0.936465,  5.908579 )     2.44226147
  WF centre and spread   34  (  5.460629,  0.938344,  5.908580 )     2.47547546
  WF centre and spread   35  (  5.344498,  0.957251,  5.908587 )     2.14462348
  WF centre and spread   36  (  5.329157,  0.959030,  5.908587 )     2.17039290
  WF centre and spread   37  (  5.404925,  1.016939,  5.908586 )     2.23726563
  WF centre and spread   38  (  5.398420,  1.029194,  5.908587 )     2.24824536
  WF centre and spread   39  (  8.375604, -0.936465,  5.908587 )     2.44226147
  WF centre and spread   40  (  8.377676, -0.938344,  5.908587 )     2.47547546
  WF centre and spread   41  (  8.493806, -0.957251,  5.908579 )     2.14462348
  WF centre and spread   42  (  8.509147, -0.959030,  5.908579 )     2.17039290
  WF centre and spread   43  (  8.433379, -1.016939,  5.908580 )     2.23726563
  WF centre and spread   44  (  8.439884, -1.029194,  5.908579 )     2.24824536
  WF centre and spread   45  (  5.419260, -2.217029,  3.810113 )     2.33641853
  WF centre and spread   46  (  5.413873, -2.222374,  3.818202 )     2.35455767
  WF centre and spread   47  (  5.344486, -2.184265,  3.783313 )     2.13954346
  WF centre and spread   48  (  5.329179, -2.185111,  3.784807 )     2.16478523
  WF centre and spread   49  (  5.448198, -2.170925,  3.790186 )     2.34977702
  WF centre and spread   50  (  5.445017, -2.172668,  3.794348 )     2.37634968
  WF centre and spread   51  (  8.419046, -1.194299,  9.718704 )     2.33582169
  WF centre and spread   52  (  8.424433, -1.188951,  9.726794 )     2.35397195
  WF centre and spread   53  (  8.493818, -1.227049,  9.691892 )     2.13927246
  WF centre and spread   54  (  8.509125, -1.226203,  9.693387 )     2.16455485
  WF centre and spread   55  (  8.390106, -1.240389,  9.698765 )     2.34951102
  WF centre and spread   56  (  8.393287, -1.238647,  9.702928 )     2.37604924
  Sum of centres and spreads (387.472526,  0.000000,330.880649 )   103.36139074
 
     11    -0.236E-01     0.3734063807      103.3613999246       2.74  <-- CONV
        O_D=      0.0040768 O_OD=      2.9692678 O_TOT=    103.3613999 <-- SPRD
 Delta: O_D=  0.3146099E-04 O_OD= -0.2362016E-01 O_TOT= -0.2358870E-01 <-- DLTA
 ------------------------------------------------------------------------------
 Cycle:     12
  WF centre and spread    1  (  6.919152, -0.000000,  3.936275 )     0.83855805
  WF centre and spread    2  (  6.919152, -0.000001,  3.937241 )     1.28858794
  WF centre and spread    3  (  6.919152, -0.000000,  3.943939 )     0.89650156
  WF centre and spread    4  (  6.919152, -0.000001,  3.947746 )     1.20720687
  WF centre and spread    5  (  6.919152,  0.000000,  3.944003 )     0.86265235
  WF centre and spread    6  (  6.919152,  0.000001,  3.947907 )     1.30820183
  WF centre and spread    7  (  6.919152, -0.000000,  3.936853 )     0.79137943
  WF centre and spread    8  (  6.919153, -0.000001,  3.932014 )     1.25329949
  WF centre and spread    9  (  6.919153,  0.000001,  3.934202 )     0.89337076
  WF centre and spread   10  (  6.919153,  0.000003,  3.930436 )     1.20251177
  WF centre and spread   11  (  6.919152,  0.000000,  7.880891 )     0.83855785
  WF centre and spread   12  (  6.919152,  0.000001,  7.879925 )     1.28858775
  WF centre and spread   13  (  6.919152,  0.000000,  7.873227 )     0.89650136
  WF centre and spread   14  (  6.919153,  0.000001,  7.869420 )     1.20720668
  WF centre and spread   15  (  6.919152, -0.000000,  7.873163 )     0.86265216
  WF centre and spread   16  (  6.919152, -0.000001,  7.869259 )     1.30820163
  WF centre and spread   17  (  6.919152,  0.000000,  7.880313 )     0.79137924
  WF centre and spread   18  (  6.919152,  0.000001,  7.885152 )     1.25329929
  WF centre and spread   19  (  6.919152, -0.000001,  7.882964 )     0.89337057
  WF centre and spread   20  (  6.919152, -0.000003,  7.886730 )     1.20251157
  WF centre and spread   21  (  5.419206,  1.194319,  2.098446 )     2.33461563
  WF centre and spread   22  (  5.413834,  1.188976,  2.090359 )     2.35249406
  WF centre and spread   23  (  5.344548,  1.227014,  2.125213 )     2.13806509
  WF centre and spread   24  (  5.329269,  1.226173,  2.123727 )     2.16306811
  WF centre and spread   25  (  5.448138,  1.240344,  2.118376 )     2.34791665
  WF centre and spread   26  (  5.444979,  1.238606,  2.114231 )     2.37409592
  WF centre and spread   27  (  8.419098,  2.217008,  8.007037 )     2.33520966
  WF centre and spread   28  (  8.424470,  2.222349,  7.998950 )     2.35307449
  WF centre and spread   29  (  8.493757,  2.184299,  8.033792 )     2.13833503
  WF centre and spread   30  (  8.509036,  2.185140,  8.032307 )     2.16329616
  WF centre and spread   31  (  8.390167,  2.170970,  8.026954 )     2.34817422
  WF centre and spread   32  (  8.393327,  2.172708,  8.022810 )     2.37438793
  WF centre and spread   33  (  5.462635,  0.936536,  5.908579 )     2.44023430
  WF centre and spread   34  (  5.460585,  0.938391,  5.908580 )     2.47301686
  WF centre and spread   35  (  5.344560,  0.957321,  5.908587 )     2.14341383
  WF centre and spread   36  (  5.329247,  0.959089,  5.908587 )     2.16889829
  WF centre and spread   37  (  5.404879,  1.016921,  5.908586 )     2.23646328
  WF centre and spread   38  (  5.398390,  1.029176,  5.908587 )     2.24722074
  WF centre and spread   39  (  8.375670, -0.936536,  5.908587 )     2.44023430
  WF centre and spread   40  (  8.377720, -0.938391,  5.908586 )     2.47301686
  WF centre and spread   41  (  8.493744, -0.957321,  5.908579 )     2.14341383
  WF centre and spread   42  (  8.509057, -0.959089,  5.908579 )     2.16889829
  WF centre and spread   43  (  8.433425, -1.016921,  5.908580 )     2.23646328
  WF centre and spread   44  (  8.439915, -1.029176,  5.908579 )     2.24722074
  WF centre and spread   45  (  5.419206, -2.217008,  3.810130 )     2.33520987
  WF centre and spread   46  (  5.413835, -2.222349,  3.818216 )     2.35307470
  WF centre and spread   47  (  5.344547, -2.184299,  3.783374 )     2.13833524
  WF centre and spread   48  (  5.329268, -2.185140,  3.784859 )     2.16329637
[...]
  WF centre and spread   15  (  6.919152, -0.000000,  7.873234 )     0.87121584
  WF centre and spread   16  (  6.919153, -0.000001,  7.869112 )     1.31929127
  WF centre and spread   17  (  6.919152,  0.000000,  7.880330 )     0.79650052
  WF centre and spread   18  (  6.919152,  0.000001,  7.885153 )     1.25976412
  WF centre and spread   19  (  6.919152, -0.000001,  7.883072 )     0.90665327
  WF centre and spread   20  (  6.919152, -0.000003,  7.886906 )     1.21825686
  WF centre and spread   21  (  5.418335,  1.194104,  2.097556 )     2.32718858
  WF centre and spread   22  (  5.412811,  1.188525,  2.089021 )     2.34402933
  WF centre and spread   23  (  5.344957,  1.226980,  2.124976 )     2.13257838
  WF centre and spread   24  (  5.329790,  1.226230,  2.123576 )     2.15626758
  WF centre and spread   25  (  5.448633,  1.240434,  2.119226 )     2.34099655
  WF centre and spread   26  (  5.445898,  1.238861,  2.115502 )     2.36649072
  WF centre and spread   27  (  8.419962,  2.217223,  8.006154 )     2.32767691
  WF centre and spread   28  (  8.425486,  2.222798,  7.997622 )     2.34446590
  WF centre and spread   29  (  8.493348,  2.184333,  8.033556 )     2.13285155
  WF centre and spread   30  (  8.508515,  2.185082,  8.032156 )     2.15650552
  WF centre and spread   31  (  8.389678,  2.170882,  8.027797 )     2.34133546
  WF centre and spread   32  (  8.392414,  2.172456,  8.024072 )     2.36689870
  WF centre and spread   33  (  5.462483,  0.936844,  5.908578 )     2.43048315
  WF centre and spread   34  (  5.460628,  0.938642,  5.908578 )     2.46137308
  WF centre and spread   35  (  5.344999,  0.957453,  5.908587 )     2.13777237
  WF centre and spread   36  (  5.329787,  0.959070,  5.908587 )     2.16178125
  WF centre and spread   37  (  5.404628,  1.016815,  5.908588 )     2.23189938
  WF centre and spread   38  (  5.398229,  1.029218,  5.908589 )     2.24297300
  WF centre and spread   39  (  8.375822, -0.936844,  5.908589 )     2.43048315
  WF centre and spread   40  (  8.377676, -0.938642,  5.908588 )     2.46137308
  WF centre and spread   41  (  8.493306, -0.957453,  5.908579 )     2.13777237
  WF centre and spread   42  (  8.508518, -0.959070,  5.908579 )     2.16178125
  WF centre and spread   43  (  8.433676, -1.016815,  5.908578 )     2.23189938
  WF centre and spread   44  (  8.440076, -1.029218,  5.908577 )     2.24297300
  WF centre and spread   45  (  5.418342, -2.217223,  3.811012 )     2.32767712
  WF centre and spread   46  (  5.412819, -2.222798,  3.819544 )     2.34446611
  WF centre and spread   47  (  5.344957, -2.184333,  3.783610 )     2.13285176
  WF centre and spread   48  (  5.329789, -2.185082,  3.785010 )     2.15650573
  WF centre and spread   49  (  5.448627, -2.170882,  3.789369 )     2.34133568
  WF centre and spread   50  (  5.445890, -2.172456,  3.793094 )     2.36689892
  WF centre and spread   51  (  8.419969, -1.194104,  9.719610 )     2.32718820
  WF centre and spread   52  (  8.425494, -1.188525,  9.728145 )     2.34402894
  WF centre and spread   53  (  8.493347, -1.226980,  9.692190 )     2.13257801
  WF centre and spread   54  (  8.508514, -1.226230,  9.693590 )     2.15626720
  WF centre and spread   55  (  8.389672, -1.240434,  9.697940 )     2.34099617
  WF centre and spread   56  (  8.392407, -1.238861,  9.701664 )     2.36649034
  Sum of centres and spreads (387.472526,  0.000000,330.880649 )   103.30661864
 
    298    -0.449E-05     0.0047673592      103.3066278253      73.75  <-- CONV
        O_D=      0.0038333 O_OD=      2.9147392 O_TOT=    103.3066278 <-- SPRD
 Delta: O_D=  0.1824307E-07 O_OD= -0.4509421E-05 O_TOT= -0.4491178E-05 <-- DLTA
 ------------------------------------------------------------------------------
 Cycle:    299
  WF centre and spread    1  (  6.919152, -0.000000,  3.936381 )     0.84639683
  WF centre and spread    2  (  6.919152, -0.000001,  3.937111 )     1.29866195
  WF centre and spread    3  (  6.919152, -0.000000,  3.944038 )     0.90999718
  WF centre and spread    4  (  6.919152, -0.000001,  3.947917 )     1.22301401
  WF centre and spread    5  (  6.919152,  0.000000,  3.943932 )     0.87121491
  WF centre and spread    6  (  6.919152,  0.000001,  3.948054 )     1.31929768
  WF centre and spread    7  (  6.919152, -0.000000,  3.936836 )     0.79649910
  WF centre and spread    8  (  6.919153, -0.000001,  3.932014 )     1.25976577
  WF centre and spread    9  (  6.919153,  0.000001,  3.934094 )     0.90665215
  WF centre and spread   10  (  6.919153,  0.000003,  3.930260 )     1.21825698
  WF centre and spread   11  (  6.919152,  0.000000,  7.880785 )     0.84639663
  WF centre and spread   12  (  6.919152,  0.000001,  7.880055 )     1.29866175
  WF centre and spread   13  (  6.919152,  0.000000,  7.873128 )     0.90999698
  WF centre and spread   14  (  6.919153,  0.000001,  7.869249 )     1.22301381
  WF centre and spread   15  (  6.919152, -0.000000,  7.873234 )     0.87121471
  WF centre and spread   16  (  6.919153, -0.000001,  7.869112 )     1.31929749
  WF centre and spread   17  (  6.919152,  0.000000,  7.880330 )     0.79649891
  WF centre and spread   18  (  6.919152,  0.000001,  7.885152 )     1.25976557
  WF centre and spread   19  (  6.919152, -0.000001,  7.883072 )     0.90665195
  WF centre and spread   20  (  6.919152, -0.000003,  7.886906 )     1.21825678
  WF centre and spread   21  (  5.418331,  1.194102,  2.097551 )     2.32717998
  WF centre and spread   22  (  5.412805,  1.188522,  2.089013 )     2.34401627
  WF centre and spread   23  (  5.344958,  1.226980,  2.124976 )     2.13257920
  WF centre and spread   24  (  5.329791,  1.226231,  2.123577 )     2.15626462
  WF centre and spread   25  (  5.448637,  1.240435,  2.119232 )     2.34100446
  WF centre and spread   26  (  5.445903,  1.238863,  2.115510 )     2.36650016
  WF centre and spread   27  (  8.419966,  2.217225,  8.006149 )     2.32766799
  WF centre and spread   28  (  8.425491,  2.222801,  7.997614 )     2.34445229
  WF centre and spread   29  (  8.493348,  2.184333,  8.033556 )     2.13285235
  WF centre and spread   30  (  8.508515,  2.185082,  8.032157 )     2.15650255
  WF centre and spread   31  (  8.389674,  2.170881,  8.027802 )     2.34134397
  WF centre and spread   32  (  8.392409,  2.172453,  8.024079 )     2.36690894
  WF centre and spread   33  (  5.462483,  0.936844,  5.908578 )     2.43048278
  WF centre and spread   34  (  5.460628,  0.938641,  5.908578 )     2.46136943
  WF centre and spread   35  (  5.344999,  0.957452,  5.908587 )     2.13777224
  WF centre and spread   36  (  5.329787,  0.959068,  5.908587 )     2.16177654
  WF centre and spread   37  (  5.404628,  1.016816,  5.908588 )     2.23190133
  WF centre and spread   38  (  5.398228,  1.029219,  5.908589 )     2.24297664
  WF centre and spread   39  (  8.375821, -0.936844,  5.908589 )     2.43048278
  WF centre and spread   40  (  8.377676, -0.938641,  5.908588 )     2.46136943
  WF centre and spread   41  (  8.493305, -0.957452,  5.908579 )     2.13777224
  WF centre and spread   42  (  8.508517, -0.959068,  5.908579 )     2.16177654
  WF centre and spread   43  (  8.433676, -1.016816,  5.908578 )     2.23190133
  WF centre and spread   44  (  8.440076, -1.029219,  5.908577 )     2.24297664
  WF centre and spread   45  (  5.418338, -2.217225,  3.811017 )     2.32766820
  WF centre and spread   46  (  5.412813, -2.222801,  3.819552 )     2.34445250
  WF centre and spread   47  (  5.344957, -2.184333,  3.783610 )     2.13285256
  WF centre and spread   48  (  5.329790, -2.185082,  3.785010 )     2.15650277
  WF centre and spread   49  (  5.448631, -2.170881,  3.789364 )     2.34134418
  WF centre and spread   50  (  5.445896, -2.172453,  3.793087 )     2.36690915
  WF centre and spread   51  (  8.419973, -1.194102,  9.719615 )     2.32717960
  WF centre and spread   52  (  8.425499, -1.188522,  9.728153 )     2.34401588
  WF centre and spread   53  (  8.493347, -1.226980,  9.692190 )     2.13257882
  WF centre and spread   54  (  8.508514, -1.226231,  9.693589 )     2.15626424
  WF centre and spread   55  (  8.389668, -1.240435,  9.697935 )     2.34100408
  WF centre and spread   56  (  8.392401, -1.238863,  9.701656 )     2.36649978
  Sum of centres and spreads (387.472526,  0.000000,330.880649 )   103.30661365
 
    299    -0.499E-05     0.0049882429      103.3066228375      73.99  <-- CONV
        O_D=      0.0038332 O_OD=      2.9147343 O_TOT=    103.3066228 <-- SPRD
 Delta: O_D= -0.8819853E-07 O_OD= -0.4899586E-05 O_TOT= -0.4987784E-05 <-- DLTA
 ------------------------------------------------------------------------------
 Cycle:    300
  WF centre and spread    1  (  6.919152, -0.000000,  3.936380 )     0.84639805
  WF centre and spread    2  (  6.919152, -0.000001,  3.937111 )     1.29866606
  WF centre and spread    3  (  6.919152, -0.000000,  3.944038 )     0.90999967
  WF centre and spread    4  (  6.919152, -0.000001,  3.947917 )     1.22301453
  WF centre and spread    5  (  6.919152,  0.000000,  3.943932 )     0.87121282
  WF centre and spread    6  (  6.919152,  0.000001,  3.948054 )     1.31929898
  WF centre and spread    7  (  6.919152, -0.000000,  3.936836 )     0.79649687
  WF centre and spread    8  (  6.919153, -0.000001,  3.932014 )     1.25976378
  WF centre and spread    9  (  6.919153,  0.000001,  3.934094 )     0.90665356
  WF centre and spread   10  (  6.919153,  0.000003,  3.930260 )     1.21825738
  WF centre and spread   11  (  6.919152,  0.000000,  7.880786 )     0.84639785
  WF centre and spread   12  (  6.919152,  0.000001,  7.880055 )     1.29866587
  WF centre and spread   13  (  6.919152,  0.000000,  7.873128 )     0.90999947
  WF centre and spread   14  (  6.919153,  0.000001,  7.869249 )     1.22301434
  WF centre and spread   15  (  6.919152, -0.000000,  7.873234 )     0.87121262
  WF centre and spread   16  (  6.919153, -0.000001,  7.869112 )     1.31929878
  WF centre and spread   17  (  6.919152,  0.000000,  7.880330 )     0.79649668
  WF centre and spread   18  (  6.919152,  0.000001,  7.885152 )     1.25976358
  WF centre and spread   19  (  6.919152, -0.000001,  7.883072 )     0.90665336
  WF centre and spread   20  (  6.919152, -0.000003,  7.886906 )     1.21825718
  WF centre and spread   21  (  5.418327,  1.194100,  2.097545 )     2.32716919
  WF centre and spread   22  (  5.412799,  1.188519,  2.089004 )     2.34400189
  WF centre and spread   23  (  5.344958,  1.226981,  2.124976 )     2.13258047
  WF centre and spread   24  (  5.329791,  1.226232,  2.123577 )     2.15626363
  WF centre and spread   25  (  5.448641,  1.240437,  2.119238 )     2.34101317
  WF centre and spread   26  (  5.445909,  1.238866,  2.115518 )     2.36651289
  WF centre and spread   27  (  8.419971,  2.217227,  8.006142 )     2.32765667
  WF centre and spread   28  (  8.425498,  2.222804,  7.997605 )     2.34443713
  WF centre and spread   29  (  8.493347,  2.184332,  8.033556 )     2.13285365
  WF centre and spread   30  (  8.508514,  2.185081,  8.032157 )     2.15650164
  WF centre and spread   31  (  8.389669,  2.170880,  8.027808 )     2.34135331
  WF centre and spread   32  (  8.392403,  2.172451,  8.024088 )     2.36692254
  WF centre and spread   33  (  5.462483,  0.936844,  5.908577 )     2.43048221
  WF centre and spread   34  (  5.460628,  0.938641,  5.908578 )     2.46136785
  WF centre and spread   35  (  5.345000,  0.957452,  5.908587 )     2.13777264
  WF centre and spread   36  (  5.329788,  0.959067,  5.908587 )     2.16177386
  WF centre and spread   37  (  5.404628,  1.016817,  5.908588 )     2.23190175
  WF centre and spread   38  (  5.398228,  1.029220,  5.908589 )     2.24297981
  WF centre and spread   39  (  8.375821, -0.936844,  5.908589 )     2.43048221
  WF centre and spread   40  (  8.377676, -0.938641,  5.908588 )     2.46136785
  WF centre and spread   41  (  8.493305, -0.957452,  5.908579 )     2.13777264
  WF centre and spread   42  (  8.508517, -0.959067,  5.908579 )     2.16177386
  WF centre and spread   43  (  8.433677, -1.016817,  5.908578 )     2.23190175
  WF centre and spread   44  (  8.440077, -1.029220,  5.908577 )     2.24297981
  WF centre and spread   45  (  5.418334, -2.217227,  3.811024 )     2.32765688
  WF centre and spread   46  (  5.412807, -2.222804,  3.819561 )     2.34443734
  WF centre and spread   47  (  5.344957, -2.184332,  3.783610 )     2.13285386
  WF centre and spread   48  (  5.329790, -2.185081,  3.785009 )     2.15650185
  WF centre and spread   49  (  5.448635, -2.170880,  3.789358 )     2.34135352
  WF centre and spread   50  (  5.445902, -2.172451,  3.793078 )     2.36692275
  WF centre and spread   51  (  8.419978, -1.194100,  9.719621 )     2.32716881
  WF centre and spread   52  (  8.425506, -1.188519,  9.728162 )     2.34400151
  WF centre and spread   53  (  8.493347, -1.226981,  9.692190 )     2.13258009
  WF centre and spread   54  (  8.508513, -1.226232,  9.693589 )     2.15626325
  WF centre and spread   55  (  8.389663, -1.240437,  9.697928 )     2.34101279
  WF centre and spread   56  (  8.392395, -1.238866,  9.701648 )     2.36651251
  Sum of centres and spreads (387.472526,  0.000000,330.880649 )   103.30660897
 
    300    -0.468E-05     0.0052033927      103.3066181538      74.24  <-- CONV
        O_D=      0.0038331 O_OD=      2.9147298 O_TOT=    103.3066182 <-- SPRD
 Delta: O_D= -0.1938640E-06 O_OD= -0.4489858E-05 O_TOT= -0.4683722E-05 <-- DLTA
 ------------------------------------------------------------------------------

 Writing checkpoint file wannier90.chk... done

 Final State
  WF centre and spread    1  (  6.919152, -0.000000,  3.936380 )     0.84639805
  WF centre and spread    2  (  6.919152, -0.000001,  3.937111 )     1.29866606
  WF centre and spread    3  (  6.919152, -0.000000,  3.944038 )     0.90999967
  WF centre and spread    4  (  6.919152, -0.000001,  3.947917 )     1.22301453
  WF centre and spread    5  (  6.919152,  0.000000,  3.943932 )     0.87121282
  WF centre and spread    6  (  6.919152,  0.000001,  3.948054 )     1.31929898
  WF centre and spread    7  (  6.919152, -0.000000,  3.936836 )     0.79649687
  WF centre and spread    8  (  6.919153, -0.000001,  3.932014 )     1.25976378
  WF centre and spread    9  (  6.919153,  0.000001,  3.934094 )     0.90665356
  WF centre and spread   10  (  6.919153,  0.000003,  3.930260 )     1.21825738
  WF centre and spread   11  (  6.919152,  0.000000,  7.880786 )     0.84639785
  WF centre and spread   12  (  6.919152,  0.000001,  7.880055 )     1.29866587
  WF centre and spread   13  (  6.919152,  0.000000,  7.873128 )     0.90999947
  WF centre and spread   14  (  6.919153,  0.000001,  7.869249 )     1.22301434
  WF centre and spread   15  (  6.919152, -0.000000,  7.873234 )     0.87121262
  WF centre and spread   16  (  6.919153, -0.000001,  7.869112 )     1.31929878
  WF centre and spread   17  (  6.919152,  0.000000,  7.880330 )     0.79649668
  WF centre and spread   18  (  6.919152,  0.000001,  7.885152 )     1.25976358
  WF centre and spread   19  (  6.919152, -0.000001,  7.883072 )     0.90665336
  WF centre and spread   20  (  6.919152, -0.000003,  7.886906 )     1.21825718
  WF centre and spread   21  (  5.418327,  1.194100,  2.097545 )     2.32716919
  WF centre and spread   22  (  5.412799,  1.188519,  2.089004 )     2.34400189
  WF centre and spread   23  (  5.344958,  1.226981,  2.124976 )     2.13258047
  WF centre and spread   24  (  5.329791,  1.226232,  2.123577 )     2.15626363
  WF centre and spread   25  (  5.448641,  1.240437,  2.119238 )     2.34101317
  WF centre and spread   26  (  5.445909,  1.238866,  2.115518 )     2.36651289
  WF centre and spread   27  (  8.419971,  2.217227,  8.006142 )     2.32765667
  WF centre and spread   28  (  8.425498,  2.222804,  7.997605 )     2.34443713
  WF centre and spread   29  (  8.493347,  2.184332,  8.033556 )     2.13285365
  WF centre and spread   30  (  8.508514,  2.185081,  8.032157 )     2.15650164
  WF centre and spread   31  (  8.389669,  2.170880,  8.027808 )     2.34135331
  WF centre and spread   32  (  8.392403,  2.172451,  8.024088 )     2.36692254
  WF centre and spread   33  (  5.462483,  0.936844,  5.908577 )     2.43048221
  WF centre and spread   34  (  5.460628,  0.938641,  5.908578 )     2.46136785
  WF centre and spread   35  (  5.345000,  0.957452,  5.908587 )     2.13777264
  WF centre and spread   36  (  5.329788,  0.959067,  5.908587 )     2.16177386
  WF centre and spread   37  (  5.404628,  1.016817,  5.908588 )     2.23190175
  WF centre and spread   38  (  5.398228,  1.029220,  5.908589 )     2.24297981
  WF centre and spread   39  (  8.375821, -0.936844,  5.908589 )     2.43048221
  WF centre and spread   40  (  8.377676, -0.938641,  5.908588 )     2.46136785
  WF centre and spread   41  (  8.493305, -0.957452,  5.908579 )     2.13777264
  WF centre and spread   42  (  8.508517, -0.959067,  5.908579 )     2.16177386
  WF centre and spread   43  (  8.433677, -1.016817,  5.908578 )     2.23190175
  WF centre and spread   44  (  8.440077, -1.029220,  5.908577 )     2.24297981
  WF centre and spread   45  (  5.418334, -2.217227,  3.811024 )     2.32765688
  WF centre and spread   46  (  5.412807, -2.222804,  3.819561 )     2.34443734
  WF centre and spread   47  (  5.344957, -2.184332,  3.783610 )     2.13285386
  WF centre and spread   48  (  5.329790, -2.185081,  3.785009 )     2.15650185
  WF centre and spread   49  (  5.448635, -2.170880,  3.789358 )     2.34135352
  WF centre and spread   50  (  5.445902, -2.172451,  3.793078 )     2.36692275
  WF centre and spread   51  (  8.419978, -1.194100,  9.719621 )     2.32716881
  WF centre and spread   52  (  8.425506, -1.188519,  9.728162 )     2.34400151
  WF centre and spread   53  (  8.493347, -1.226981,  9.692190 )     2.13258009
  WF centre and spread   54  (  8.508513, -1.226232,  9.693589 )     2.15626325
  WF centre and spread   55  (  8.389663, -1.240437,  9.697928 )     2.34101279
  WF centre and spread   56  (  8.392395, -1.238866,  9.701648 )     2.36651251
  Sum of centres and spreads (387.472526,  0.000000,330.880649 )   103.30660897
 
         Spreads (Ang^2)       Omega I      =   100.388055300
        ================       Omega D      =     0.003833053
                               Omega OD     =     2.914729800
    Final Spread (Ang^2)       Omega Total  =   103.306618154
 ------------------------------------------------------------------------------

 Wannier centres written to file wannier90_centres.xyz
 Time for wannierise           74.309 (sec)

 Writing checkpoint file wannier90.chk... done

 *---------------------------------------------------------------------------*
 |                               PLOTTING                                    |
 *---------------------------------------------------------------------------*
 
 
 Calculating interpolated band-structure
 
 Time to calculate interpolated band structure      34.216 (sec)
 
 Time for plotting             37.670 (sec)
 Total Execution Time         114.223 (sec)

 *===========================================================================*
 |                             TIMING INFORMATION                            |
 *===========================================================================*
 |    Tag                                                Ncalls      Time (s)|
 |---------------------------------------------------------------------------|
 |kmesh: get                                        :         1         0.047|
 |overlap: allocate                                 :         1         0.019|
 |overlap: read                                     :         1         2.137|
 |wann: main                                        :         1        74.309|
 |plot: main                                        :         1        37.670|
 *---------------------------------------------------------------------------*
 
 All done: wannier90 exiting
