<?xml version="1.0" encoding="UTF-8" ?>
<psml version="1.1" energy_unit="hartree" length_unit="bohr"
 uuid="89456970-44bf-11e8-4d23-a6a6edf19e30"
 xmlns="http://esl.cecam.org/PSML/ns/1.1">
<provenance creator="ONCVPSP-3.3.0+psml-3.3.0-73 (fully-relativistic)"
 date="2018-04-20">
<annotation action="semilocal-pseudopotential-generation"
 action-cont="projectors-generation" />
<input-file name="oncvpsp-input">
<![CDATA[# atsym z nc nv iexc psfile
Fe 26 3 4 4 both
# n l f
1 0 2.0
2 0 2.0
2 1 6.0
3 0 2.0
3 1 6.0
3 2 6.0
4 0 2.0
# lmax
2
# l rc ep ncon nbas qcut
0 1.25 0.0 3 7 9.4
1 1.2 0.0 3 7 9.4
2 1.55 0.0 3 7 9.4
# lloc lpopt rc5 dvloc0
4 5 1.1 0.0
# l nproj debl
0 2 1.0
1 2 0.8
2 2 0.8
# icmod fcfact rcfact
3 3.0 1.7
# epsh1 epsh2 depsh
-24.0 12.0 0.02
# rlmax drl
6.0 0.01
 0
]]>
</input-file>
</provenance>
<pseudo-atom-spec atomic-label="Fe" atomic-number="26" z-pseudo="16"
 flavor="Hamann&apos;s oncvpsp" relativity="dirac" spin-dft="no"
 core-corrections="yes">
<annotation pseudo-energy="-121.592243927" />
<exchange-correlation>
<annotation oncvpsp-xc-code="4" oncvpsp-xc-type="GGA -- Perdew-Burke-Ernzerhof" />
<libxc-info number-of-functionals="2">
<functional name="Perdew, Burke &amp; Ernzerhof (GGA)" type="exchange" id="101" />
<functional name="Perdew, Burke &amp; Ernzerhof (GGA)" type="correlation"
 id="130" />
</libxc-info>
</exchange-correlation>
<valence-configuration total-valence-charge="16">
<shell n="3" l="s" occupation="2" />
<shell n="3" l="p" occupation="6" />
<shell n="3" l="d" occupation="6" />
<shell n="4" l="s" occupation="2" />
</valence-configuration>
</pseudo-atom-spec>
<grid npts="457">
<annotation type="sampled from oncvpsp log grid"
 recipe="r(i:1..N) = r1*exp(a*(i-1)) + r=0; resampled"
 recipe-cont="r1: scale; a: step" scale="0.192307692308E-04"
 step="0.119285708653E-01" delta="0.500000000000E-02" rmax="44.2248135897" />
<grid-data>
  0.000000000000E+00  5.050053692967E-03  1.008708593772E-02  1.513223739776E-02
  2.014816255451E-02  2.527348802918E-02  3.058816214668E-02  3.571906205505E-02
  4.072730601400E-02  4.588712082187E-02  5.108759065353E-02  5.620300303659E-02
  6.183062285620E-02  6.721515569429E-02  7.306860171076E-02  7.848991730107E-02
  8.431346671058E-02  8.949515180459E-02  9.499528970881E-02  1.008334516999E-01
  1.070304118539E-01  1.122610879123E-01  1.177473919885E-01  1.235018168622E-01
  1.295374658469E-01  1.358680826271E-01  1.425080825541E-01  1.477001832717E-01
  1.530814515745E-01  1.586587795431E-01  1.644393103617E-01  1.704304474680E-01
  1.766398640339E-01  1.830755127941E-01  1.897456362307E-01  1.966587771303E-01
  2.038237895251E-01  2.112498500326E-01  2.163502664118E-01  2.215738272440E-01
  2.269235057290E-01  2.324023468513E-01  2.380134691137E-01  2.437600663120E-01
  2.496454093530E-01  2.556728481164E-01  2.618458133614E-01  2.681678186792E-01
  2.746424624934E-01  2.812734301078E-01  2.880644958043E-01  2.950195249910E-01
  3.021424764024E-01  3.094374043527E-01  3.169084610433E-01  3.245598989268E-01
  3.323960731265E-01  3.404214439160E-01  3.486405792579E-01  3.570581574035E-01
  3.656789695559E-01  3.745079225969E-01  3.835500418800E-01  3.928104740912E-01
  4.022944901776E-01  4.120074883485E-01  4.219549971472E-01  4.270184571129E-01
  4.321426785983E-01  4.373283907415E-01  4.425763314304E-01  4.478872474075E-01
  4.532618943764E-01  4.587010371089E-01  4.642054495543E-01  4.697759149489E-01
  4.754132259283E-01  4.811181846394E-01  4.868916028551E-01  4.927343020894E-01
  4.986471137144E-01  5.046308790790E-01  5.106864496280E-01  5.168146870235E-01
  5.230164632678E-01  5.292926608270E-01  5.356441727569E-01  5.420719028300E-01
  5.485767656640E-01  5.551596868519E-01  5.618216030941E-01  5.685634623313E-01
  5.753862238793E-01  5.822908585658E-01  5.892783488686E-01  5.963496890550E-01
  6.035058853237E-01  6.107479559476E-01  6.180769314189E-01  6.254938545960E-01
  6.329997808511E-01  6.405957782213E-01  6.482829275600E-01  6.560623226907E-01
  6.639350705630E-01  6.719022914097E-01  6.799651189067E-01  6.881247003335E-01
  6.963821967375E-01  7.047387830984E-01  7.131956484956E-01  7.217539962775E-01
  7.304150442328E-01  7.391800247636E-01  7.480501850608E-01  7.570267872815E-01
  7.661111087289E-01  7.753044420337E-01  7.846080953381E-01  7.940233924821E-01
  8.035516731919E-01  8.131942932702E-01  8.229526247895E-01  8.328280562869E-01
  8.428219929624E-01  8.529358568779E-01  8.631710871605E-01  8.735291402064E-01
  8.840114898889E-01  8.946196277675E-01  9.053550633007E-01  9.162193240603E-01
  9.272139559491E-01  9.383405234205E-01  9.496006097015E-01  9.609958170179E-01
  9.725277668221E-01  9.841981000240E-01  9.960084772243E-01  1.007960578951E+00
  1.020056105898E+00  1.032296779169E+00  1.044684340519E+00  1.057220552605E+00
  1.069907199237E+00  1.082746085628E+00  1.095739038655E+00  1.108887907119E+00
  1.122194562004E+00  1.135660896748E+00  1.149288827509E+00  1.163080293440E+00
  1.177037256961E+00  1.191161704044E+00  1.205455644493E+00  1.219921112227E+00
  1.234560165573E+00  1.249374887560E+00  1.264367386211E+00  1.279539794846E+00
  1.294894272384E+00  1.310433003652E+00  1.326158199696E+00  1.342072098093E+00
  1.358176963270E+00  1.374475086829E+00  1.390968787871E+00  1.407660413325E+00
  1.424552338285E+00  1.441646966345E+00  1.458946729941E+00  1.476454090700E+00
  1.494171539788E+00  1.512101598266E+00  1.530246817445E+00  1.548609779254E+00
  1.567193096605E+00  1.585999413765E+00  1.605031406730E+00  1.624291783611E+00
  1.643783285014E+00  1.663508684434E+00  1.683470788647E+00  1.703672438111E+00
  1.724116507368E+00  1.744805905457E+00  1.765743576322E+00  1.786932499238E+00
  1.808375689229E+00  1.830076197500E+00  1.852037111870E+00  1.874261557212E+00
  1.896752695899E+00  1.919513728250E+00  1.942547892989E+00  1.965858467705E+00
  1.989448769317E+00  2.013322154549E+00  2.037482020403E+00  2.061931804648E+00
  2.086674986304E+00  2.111715086140E+00  2.137055667173E+00  2.162700335179E+00
  2.188652739202E+00  2.214916572072E+00  2.241495570937E+00  2.268393517788E+00
  2.295614240002E+00  2.323161610882E+00  2.351039550212E+00  2.379252024815E+00
  2.407803049112E+00  2.436696685702E+00  2.465937045930E+00  2.495528290481E+00
  2.525474629967E+00  2.555780325527E+00  2.586449689433E+00  2.617487085706E+00
  2.648896930735E+00  2.680683693904E+00  2.712851898230E+00  2.745406121009E+00
  2.778350994461E+00  2.811691206395E+00  2.845431500872E+00  2.879576678882E+00
  2.914131599029E+00  2.949101178217E+00  2.984490392356E+00  3.020304277064E+00
  3.056547928389E+00  3.093226503529E+00  3.130345221572E+00  3.167909364230E+00
  3.205924276601E+00  3.244395367920E+00  3.283328112335E+00  3.322728049683E+00
  3.362600786280E+00  3.402951995715E+00  3.443787419664E+00  3.485112868700E+00
  3.526934223124E+00  3.569257433801E+00  3.612088523007E+00  3.655433585283E+00
  3.699298788307E+00  3.743690373766E+00  3.788614658251E+00  3.834078034150E+00
  3.880086970560E+00  3.926648014207E+00  3.973767790377E+00  4.021453003862E+00
  4.069710439908E+00  4.118546965187E+00  4.167969528769E+00  4.217985163115E+00
  4.268600985072E+00  4.319824196893E+00  4.371662087256E+00  4.424122032303E+00
  4.477211496690E+00  4.530938034651E+00  4.585309291066E+00  4.640333002559E+00
  4.696016998590E+00  4.752369202573E+00  4.809397633004E+00  4.867110404600E+00
  4.925515729455E+00  4.984621918209E+00  5.044437381227E+00  5.104970629802E+00
  5.166230277360E+00  5.228225040688E+00  5.290963741176E+00  5.354455306070E+00
  5.418708769743E+00  5.483733274980E+00  5.549538074280E+00  5.616132531171E+00
  5.683526121545E+00  5.751728435004E+00  5.820749176224E+00  5.890598166338E+00
  5.961285344334E+00  6.032820768466E+00  6.105214617688E+00  6.178477193100E+00
  6.252618919418E+00  6.327650346451E+00  6.403582150608E+00  6.480425136415E+00
  6.558190238052E+00  6.636888520909E+00  6.716531183160E+00  6.797129557358E+00
  6.878695112046E+00  6.961239453391E+00  7.044774326831E+00  7.129311618753E+00
  7.214863358178E+00  7.301441718476E+00  7.389059019098E+00  7.477727727327E+00
  7.567460460055E+00  7.658269985576E+00  7.750169225403E+00  7.843171256108E+00
  7.937289311181E+00  8.032536782915E+00  8.128927224310E+00  8.226474351002E+00
  8.325192043214E+00  8.425094347732E+00  8.526195479905E+00  8.628509825664E+00
  8.732051943572E+00  8.836836566895E+00  8.942878605698E+00  9.050193148966E+00
  9.158795466753E+00  9.268701012355E+00  9.379925424503E+00  9.492484529597E+00
  9.606394343952E+00  9.721671076079E+00  9.838331128992E+00  9.956391102540E+00
  1.007586779577E+01  1.019677820932E+01  1.031913954783E+01  1.044296922241E+01
  1.056828485307E+01  1.069510427131E+01  1.082344552257E+01  1.095332686884E+01
  1.108476679126E+01  1.121778399276E+01  1.135239740067E+01  1.148862616948E+01
  1.162648968351E+01  1.176600755972E+01  1.190719965043E+01  1.205008604624E+01
  1.219468707879E+01  1.234102332374E+01  1.248911560362E+01  1.263898499087E+01
  1.279065281076E+01  1.294414064449E+01  1.309947033222E+01  1.325666397621E+01
  1.341574394392E+01  1.357673287125E+01  1.373965366570E+01  1.390452950969E+01
  1.407138386381E+01  1.424024047017E+01  1.441112335582E+01  1.458405683609E+01
  1.475906551812E+01  1.493617430434E+01  1.511540839599E+01  1.529679329674E+01
  1.548035481630E+01  1.566611907410E+01  1.585411250299E+01  1.604436185302E+01
  1.623689419526E+01  1.643173692560E+01  1.662891776871E+01  1.682846478193E+01
  1.703040635932E+01  1.723477123563E+01  1.744158849046E+01  1.765088755234E+01
  1.786269820297E+01  1.807705058140E+01  1.829397518838E+01  1.851350289064E+01
  1.873566492533E+01  1.896049290443E+01  1.918801881929E+01  1.941827504512E+01
  1.965129434566E+01  1.988710987781E+01  2.012575519634E+01  2.036726425870E+01
  2.061167142980E+01  2.085901148696E+01  2.110931962480E+01  2.136263146030E+01
  2.161898303782E+01  2.187841083428E+01  2.214095176429E+01  2.240664318546E+01
  2.267552290369E+01  2.294762917853E+01  2.322300072867E+01  2.350167673742E+01
  2.378369685827E+01  2.406910122057E+01  2.435793043521E+01  2.465022560043E+01
  2.494602830764E+01  2.524538064733E+01  2.554832521510E+01  2.585490511768E+01
  2.616516397909E+01  2.647914594684E+01  2.679689569820E+01  2.711845844658E+01
  2.744387994794E+01  2.777320650732E+01  2.810648498540E+01  2.844376280523E+01
  2.878508795889E+01  2.913050901440E+01  2.948007512257E+01  2.983383602404E+01
  3.019184205633E+01  3.055414416101E+01  3.092079389094E+01  3.129184341763E+01
  3.166734553864E+01  3.204735368511E+01  3.243192192933E+01  3.282110499248E+01
  3.321495825239E+01  3.361353775142E+01  3.401690020443E+01  3.442510300689E+01
  3.483820424297E+01  3.525626269389E+01  3.567933784621E+01  3.610748990037E+01
  3.654077977917E+01  3.697926913652E+01  3.742302036616E+01  3.787209661055E+01
  3.832656176988E+01  3.878648051112E+01  3.925191827725E+01  3.972294129658E+01
  4.019961659214E+01  4.068201199124E+01  4.117019613514E+01  4.166423848876E+01
  4.216420935063E+01  4.267017986283E+01  4.318222202119E+01  4.370040868544E+01
  4.422481358967E+01
</grid-data>
</grid>
<valence-charge total-charge="16" is-unscreening-charge="yes"
 rescaled-to-z-pseudo="no">
<radfunc>
<data npts="457">
  1.001173229869E+01  1.001804736672E+01  1.003692216640E+01  1.006840172619E+01
  1.011214815140E+01  1.016963296913E+01  1.024283553477E+01  1.032657463792E+01
  1.042062282817E+01  1.053015396640E+01  1.065342815203E+01  1.078719443498E+01
  1.094854594129E+01  1.111669443928E+01  1.131456670296E+01  1.151165320364E+01
  1.173794495793E+01  1.195179162821E+01  1.219143286220E+01  1.245979071563E+01
  1.276006593143E+01  1.302560249054E+01  1.331571855925E+01  1.363246017053E+01
  1.397799341623E+01  1.435459948583E+01  1.476466593148E+01  1.509566329179E+01
  1.544795054730E+01  1.582261979379E+01  1.622077297395E+01  1.664351261274E+01
  1.709193056738E+01  1.756709450484E+01  1.807003179169E+01  1.860171045387E+01
  1.916301683776E+01  1.975472958155E+01  2.016642029790E+01  2.059206214036E+01
  2.103176488694E+01  2.148559369441E+01  2.195356307032E+01  2.243563034591E+01
  2.293168863237E+01  2.344155924626E+01  2.396498359487E+01  2.450161451810E+01
  2.505100709081E+01  2.561260889875E+01  2.618574981210E+01  2.676963129354E+01
  2.736331529334E+01  2.796571280192E+01  2.857557215114E+01  2.919146717938E+01
  2.981178540274E+01  3.043471636517E+01  3.105824037401E+01  3.168011786523E+01
  3.229787968271E+01  3.290881859990E+01  3.350998245755E+01  3.409816933923E+01
  3.466992525388E+01  3.522154484192E+01  3.574907566560E+01  3.600250708320E+01
  3.624832668351E+01  3.648597548295E+01  3.671488154020E+01  3.693446068070E+01
  3.714411732200E+01  3.734324540479E+01  3.753122943464E+01  3.770744563896E+01
  3.787126324356E+01  3.802204587298E+01  3.815915307806E+01  3.828194199403E+01
  3.838976913162E+01  3.848199230325E+01  3.855797268538E+01  3.861707701749E+01
  3.865867993700E+01  3.868216644863E+01  3.868693452532E+01  3.867239783672E+01
  3.863798859990E+01  3.858316054534E+01  3.850739198982E+01  3.841018900607E+01
  3.829108867737E+01  3.814966242332E+01  3.798551938121E+01  3.779830982543E+01
  3.758772860527E+01  3.735351857951E+01  3.709547402423E+01  3.681344398812E+01
  3.650733556779E+01  3.617711707369E+01  3.582282105552E+01  3.544454715438E+01
  3.504246474796E+01  3.461681535325E+01  3.416791475132E+01  3.369615479752E+01
  3.320200488085E+01  3.268601299646E+01  3.214880639595E+01  3.159109178172E+01
  3.101365501343E+01  3.041736029708E+01  2.980314883039E+01  2.917203688194E+01
  2.852511328582E+01  2.786353633880E+01  2.718853009223E+01  2.650138003782E+01
  2.580342819257E+01  2.509606759586E+01  2.438073623940E+01  2.365891045846E+01
  2.293209782162E+01  2.220182956404E+01  2.146965261793E+01  2.073712130190E+01
  2.000578873836E+01  1.927719807551E+01  1.855287359677E+01  1.783431180573E+01
  1.712297257936E+01  1.642027048502E+01  1.572756635851E+01  1.504615924041E+01
  1.437727876633E+01  1.372207810332E+01  1.308162751936E+01  1.245690866617E+01
  1.184880964662E+01  1.125812092786E+01  1.068553214971E+01  1.013162986453E+01
  9.596896231225E+00  9.081708671274E+00  8.586340479635E+00  8.110962368736E+00
  7.655644909119E+00  7.220361816954E+00  6.804994026693E+00  6.409334476653E+00
  6.033093525862E+00  5.675904913500E+00  5.337332168194E+00  5.016882875953E+00
  4.714040503374E+00  4.428261574496E+00  4.158961163214E+00  3.905521626315E+00
  3.667291894379E+00  3.443600373555E+00  3.233768184286E+00  3.037112168828E+00
  2.852949572244E+00  2.680602292365E+00  2.519400764504E+00  2.368687463663E+00
  2.227820022134E+00  2.096173964762E+00  1.973145067449E+00  1.858151346552E+00
  1.750634687764E+00  1.650062122975E+00  1.555926762914E+00  1.467748392251E+00
  1.385073732872E+00  1.307491773112E+00  1.234681334662E+00  1.166371744505E+00
  1.102293808440E+00  1.042190768774E+00  9.858181190799E-01  9.329433817562E-01
  8.833458528444E-01  8.368163183804E-01  7.931567463574E-01  7.521799581753E-01
  7.137092832317E-01  6.775782000783E-01  6.436299673306E-01  6.117172472743E-01
  5.817017248627E-01  5.534537245531E-01  5.268518271810E-01  5.017824888320E-01
  4.781396634382E-01  4.558244306050E-01  4.347446299675E-01  4.148145031859E-01
  3.959543445151E-01  3.780901607290E-01  3.611533410426E-01  3.450803375503E-01
  3.298123565980E-01  3.152950614060E-01  3.014782861838E-01  2.883157618992E-01
  2.757648538018E-01  2.637863107390E-01  2.523440262481E-01  2.414048113576E-01
  2.309381789816E-01  2.209161397498E-01  2.113130090730E-01  2.021052252093E-01
  1.932711780602E-01  1.847910484001E-01  1.766466572146E-01  1.688213248040E-01
  1.612997392889E-01  1.540678341439E-01  1.471126743743E-01  1.404223509440E-01
  1.339858830620E-01  1.277931279329E-01  1.218346975801E-01  1.161018823543E-01
  1.105865807506E-01  1.052812351590E-01  1.001787731921E-01  9.527255423755E-02
  9.055632089914E-02  8.602415500400E-02  8.167043786449E-02  7.748981450028E-02
  7.347716153935E-02  6.962755853177E-02  6.593626242487E-02  6.239868496276E-02
  5.901037278767E-02  5.576699003427E-02  5.266430322131E-02  4.969816825781E-02
  4.686451939245E-02  4.415935994602E-02  4.157875467657E-02  3.911882363601E-02
  3.677573738489E-02  3.454571343902E-02  3.242501382717E-02  3.040994365037E-02
  2.849685051860E-02  2.668212477659E-02  2.496220040596E-02  2.333355650757E-02
  2.179271926911E-02  2.033626432660E-02  1.896081943237E-02  1.766306734645E-02
  1.643974887295E-02  1.528766596806E-02  1.420368485196E-02  1.318473906292E-02
  1.222783239806E-02  1.133004169189E-02  1.048851939046E-02  9.700495885739E-03
  8.963281581506E-03  8.274268668684E-03  7.630932594303E-03  7.030833214245E-03
  6.471615625477E-03  5.951010678551E-03  5.466835175706E-03  5.016991763886E-03
  4.599468535501E-03  4.212338352573E-03  3.853757912329E-03  3.521966574053E-03
  3.215284968366E-03  2.932113410929E-03  2.670930142977E-03  2.430289421111E-03
  2.208819478466E-03  2.005220378712E-03  1.818261783479E-03  1.646780652678E-03
  1.489678895903E-03  1.345920991719E-03  1.214531590098E-03  1.094593111768E-03
  9.852433566538E-04  8.856731320516E-04  7.951239097266E-04  7.128855196783E-04
  6.382938870419E-04  5.707288173881E-04  5.096118346215E-04  4.544040747431E-04
  4.046042379359E-04  3.597466007622E-04  3.193990897005E-04  2.831614168113E-04
  2.506632779676E-04  2.215626138256E-04  1.955439335126E-04  1.723167008657E-04
  1.516137829533E-04  1.331899605317E-04  1.168205000336E-04  1.022997866263E-04
  8.944001782909E-05  7.806995711740E-05  6.803374687520E-05  5.918977997985E-05
  5.140962921468E-05  4.457703360694E-05  3.858694068266E-05  3.334460351760E-05
  2.876473134920E-05  2.477069239846E-05  2.129376743878E-05  1.827245254141E-05
  1.565180932804E-05  1.338286097183E-05  1.142203211057E-05  9.730630771401E-06
  8.274370355674E-06  7.022929696643E-06  5.949549180841E-06  5.030660916817E-06
  4.245550941318E-06  3.576051472509E-06  3.006261251412E-06  2.522292055269E-06
  2.112039518838E-06  1.764976460367E-06  1.471966976928E-06  1.225099647530E-06
  1.017538260856E-06  8.433885662136E-07  6.975796300744E-07  5.757584650529E-07
  4.741966889886E-07  3.897080537486E-07  3.195756816938E-07  2.614883631535E-07
  2.134843463317E-07  1.739022423572E-07  1.413383533121E-07  1.146094999953E-07
  9.272072661870E-08  7.483734104423E-08  6.026077352804E-08  4.840778635838E-08
  3.879261585905E-08  3.101167324328E-08  2.473047206279E-08  1.967248765623E-08
  1.560968823073E-08  1.235450819691E-08  9.753062317814E-09  7.679424327353E-09
  6.030816128271E-09  4.723573695848E-09  3.689773590763E-09  2.874419715371E-09
  2.233103820637E-09  1.730065437895E-09  1.334188639049E-09  1.027918521872E-09
  7.896818407079E-10  6.048998395720E-10  4.619960767519E-10  3.518050227854E-10
  2.670914157780E-10  2.021608119209E-10  1.525449907011E-10  1.147486096707E-10
  8.604581808326E-11  6.431749019401E-11  4.792137873842E-11  3.558886204532E-11
  2.634310378373E-11  1.943439678278E-11  1.428925145361E-11  1.047044077213E-11
  7.645749645646E-12  5.563615699684E-12  4.034207214633E-12  2.914775807616E-12
  2.098358072892E-12  1.505091512093E-12  1.075563877648E-12  7.657383435749E-13
  5.430953821042E-13  3.837105608356E-13  2.700495575686E-13  1.893106995222E-13
  1.321838711446E-13  9.192481755803E-14  6.366741543680E-14  4.391477541300E-14
  3.016419364148E-14  2.063187616657E-14  1.405172833808E-14  9.528896032668E-15
  6.433610730945E-15  4.324576365551E-15  2.893916065064E-15  1.927784790386E-15
  1.278314838172E-15  8.437229976065E-16  5.542689404835E-16  3.623892653460E-16
  2.357976434088E-16  1.526820122364E-16  9.837736488719E-17  6.307186838873E-17
  4.023309000774E-17  2.553359382691E-17  1.612109754841E-17  1.012522030793E-17
  6.325785613664E-18  3.930945391952E-18  2.429540576037E-18  1.493370682015E-18
  9.128486479384E-19  5.548666870488E-19  3.353574231752E-19  2.015240665123E-19
  1.203969816931E-19  7.150617861749E-20  4.221628952975E-20  2.477387406528E-20
  1.444952722169E-20  8.375818729703E-21  4.824835185980E-21  2.761763567154E-21
  1.570746091313E-21  8.875802882210E-22  0.000000000000E+00  0.000000000000E+00
  0.000000000000E+00  0.000000000000E+00  0.000000000000E+00  0.000000000000E+00
  0.000000000000E+00  0.000000000000E+00  0.000000000000E+00  0.000000000000E+00
  0.000000000000E+00  0.000000000000E+00  0.000000000000E+00  0.000000000000E+00
  0.000000000000E+00
</data>
</radfunc>
</valence-charge>
<pseudocore-charge matching-radius="0.421954997147"
 number-of-continuous-derivatives="4">
<annotation model-charge-form="Teter function with specified parameters" />
<radfunc>
<data npts="290">
  1.128729185883E+02  1.128552446077E+02  1.128024202908E+02  1.127143217111E+02
  1.125918978793E+02  1.124310356489E+02  1.122262032638E+02  1.119919061851E+02
  1.117287875624E+02  1.114223817770E+02  1.110775675911E+02  1.107034482238E+02
  1.102522347008E+02  1.097820763065E+02  1.092288847239E+02  1.086779672592E+02
  1.080454996613E+02  1.074478932298E+02  1.067782827993E+02  1.060285191681E+02
  1.051896719475E+02  1.044479318786E+02  1.036375779938E+02  1.027528827102E+02
  1.017877701469E+02  1.007358237963E+02  9.959030240136E+01  9.866552796679E+01
  9.768109456690E+01  9.663386318478E+01  9.552063926789E+01  9.433819124012E+01
  9.308327285146E+01  9.175264981563E+01  9.034313120327E+01  8.885160606687E+01
  8.727508577091E+01  8.561075248254E+01  8.445112086191E+01  8.325060368392E+01
  8.200856695917E+01  8.072445197493E+01  7.939778553573E+01  7.802819084695E+01
  7.661539902919E+01  7.515926124076E+01  7.365976137399E+01  7.211702927757E+01
  7.053135444165E+01  6.890320006505E+01  6.723321740484E+01  6.552226028680E+01
  6.377139963212E+01  6.198193783000E+01  6.015542275898E+01  5.829366123039E+01
  5.639873159770E+01  5.447299524424E+01  5.251910663053E+01  5.054002155182E+01
  4.853900322694E+01  4.651962581263E+01  4.448577491469E+01  4.244164464920E+01
  4.039173079669E+01  3.834081959042E+01  3.629397168932E+01  3.527372285223E+01
  3.425650090941E+01  3.324300523162E+01  3.223394732589E+01  3.123004966463E+01
  3.023204441585E+01  2.924067207367E+01  2.825667998844E+01  2.728082079658E+01
  2.631385075065E+01  2.535652795105E+01  2.440961048111E+01  2.347385444844E+01
  2.255001193578E+01  2.163882886595E+01  2.074104278585E+01  1.985738057582E+01
  1.898855609135E+01  1.813526774537E+01  1.729819604009E+01  1.647800105878E+01
  1.567531992857E+01  1.489076426665E+01  1.412491762331E+01  1.337833293607E+01
  1.265153001048E+01  1.194499304384E+01  1.125916820916E+01  1.059446131737E+01
  9.951235576632E+00  9.329809468189E+00  8.730454758431E+00  8.153394667552E+00
  7.598802215015E+00  7.066798762106E+00  6.557452771600E+00  6.070778804036E+00
  5.606736769395E+00  5.165231451935E+00  4.746112324688E+00  4.349173668544E+00
  3.974155008972E+00  3.620741881283E+00  3.288566932872E+00  2.977211368083E+00
  2.686206738352E+00  2.415037076905E+00  2.163141373770E+00  1.929916383041E+00
  1.714719750413E+00  1.516873444838E+00  1.335667474038E+00  1.170363859304E+00
  1.020200840898E+00  8.843972812406E-01  7.621572291802E-01  6.526746050219E-01
  5.551379626791E-01  4.687352824813E-01  3.926587458364E-01  3.261094412297E-01
  2.683019500158E-01  2.184687601973E-01  1.758644569544E-01  1.397696401428E-01
  1.094945213542E-01  8.438215645955E-02  6.381127381824E-02  4.719866353701E-02
  3.400109923052E-02  2.371677062048E-02  1.588621290003E-02  1.009272696637E-02
  5.962293232256E-03  3.162990592291E-03  1.403941042628E-03  4.338092186664E-04
  3.889449466788E-05  4.086104663084E-05  2.941581796311E-04  6.831890359410E-04
  1.119290320041E-03  1.537588716541E-03  1.893801087296E-03  2.161045208515E-03
  2.326725692995E-03  2.389555840505E-03  2.356770538049E-03  2.241578124288E-03
  2.060890538357E-03  1.833361355207E-03  1.577750787502E-03  1.311625775427E-03
  1.050392293160E-03  8.066463956574E-04  5.898207341199E-04  4.060946857049E-04
  2.585292347664E-04  1.473826096567E-04  7.055964041395E-05  2.414698056594E-05
  2.987743123270E-06  1.252632387740E-06  1.297008857553E-05  3.248497097726E-05
  5.482346222829E-05  7.595068346582E-05  9.291642620420E-05  1.038928804370E-04
  1.081157459443E-04  1.057461963060E-04  9.767546436784E-05  8.529610578570E-05
  7.026419728769E-05  5.427492372545E-05  3.887044711856E-05  2.529401820565E-05
  1.439848480738E-05  6.611239403705E-06  1.951816998995E-06  9.335285710812E-08
  4.553958150221E-07  2.313465288251E-06  4.910383209706E-06  7.555758575996E-06
  9.702815857571E-06  1.099563946281E-05  1.128433688870E-05  1.061002915357E-05
  9.165399865887E-06  7.239302548243E-06  5.155318980321E-06  3.214054241947E-06
  1.647436128366E-06  5.906497839877E-07  7.403539624573E-08  0.000000000000E+00
  0.000000000000E+00  0.000000000000E+00  0.000000000000E+00  0.000000000000E+00
  0.000000000000E+00  0.000000000000E+00  0.000000000000E+00  0.000000000000E+00
  0.000000000000E+00  0.000000000000E+00  0.000000000000E+00  0.000000000000E+00
  0.000000000000E+00  0.000000000000E+00  0.000000000000E+00  0.000000000000E+00
  0.000000000000E+00  0.000000000000E+00  0.000000000000E+00  0.000000000000E+00
  0.000000000000E+00  0.000000000000E+00  0.000000000000E+00  0.000000000000E+00
  0.000000000000E+00  0.000000000000E+00  0.000000000000E+00  0.000000000000E+00
  0.000000000000E+00  0.000000000000E+00  0.000000000000E+00  0.000000000000E+00
  0.000000000000E+00  0.000000000000E+00  0.000000000000E+00  0.000000000000E+00
  0.000000000000E+00  0.000000000000E+00  0.000000000000E+00  0.000000000000E+00
  0.000000000000E+00  0.000000000000E+00  0.000000000000E+00  0.000000000000E+00
  0.000000000000E+00  0.000000000000E+00  0.000000000000E+00  0.000000000000E+00
  0.000000000000E+00  0.000000000000E+00  0.000000000000E+00  0.000000000000E+00
  0.000000000000E+00  0.000000000000E+00  0.000000000000E+00  0.000000000000E+00
  0.000000000000E+00  0.000000000000E+00  0.000000000000E+00  0.000000000000E+00
  0.000000000000E+00  0.000000000000E+00  0.000000000000E+00  0.000000000000E+00
  0.000000000000E+00  0.000000000000E+00  0.000000000000E+00  0.000000000000E+00
  0.000000000000E+00  0.000000000000E+00  0.000000000000E+00  0.000000000000E+00
  0.000000000000E+00  0.000000000000E+00  0.000000000000E+00  0.000000000000E+00
  0.000000000000E+00  0.000000000000E+00  0.000000000000E+00  0.000000000000E+00
  0.000000000000E+00  0.000000000000E+00  0.000000000000E+00  0.000000000000E+00
  0.000000000000E+00  0.000000000000E+00
</data>
</radfunc>
</pseudocore-charge>
<semilocal-potentials set="scalar_relativistic">
<slps n="3" l="s" rc="1.26436738621">
<radfunc>
<data npts="290">
 -1.930056067791E+01 -1.930116278472E+01 -1.930296222090E+01 -1.930596299895E+01
 -1.931013242970E+01 -1.931561005051E+01 -1.932258340821E+01 -1.933055776995E+01
 -1.933951039184E+01 -1.934993224657E+01 -1.936165580020E+01 -1.937437003513E+01
 -1.938969630620E+01 -1.940565668429E+01 -1.942442331749E+01 -1.944309920156E+01
 -1.946452256889E+01 -1.948474806044E+01 -1.950739042231E+01 -1.953271744718E+01
 -1.956102085234E+01 -1.958601818450E+01 -1.961329534619E+01 -1.964303517034E+01
 -1.967542972506E+01 -1.971067948832E+01 -1.974899212239E+01 -1.977986467360E+01
 -1.981267111785E+01 -1.984750298485E+01 -1.988445128506E+01 -1.992360550357E+01
 -1.996505240553E+01 -2.000887462924E+01 -2.005514904132E+01 -2.010394482642E+01
 -2.015532128278E+01 -2.020932529369E+01 -2.024680404327E+01 -2.028546993468E+01
 -2.032532375378E+01 -2.036636163810E+01 -2.040857452383E+01 -2.045194755178E+01
 -2.049645943100E+01 -2.054208175913E+01 -2.058877829860E+01 -2.063650420862E+01
 -2.068520523258E+01 -2.073481684182E+01 -2.078526333656E+01 -2.083645690587E+01
 -2.088829664928E+01 -2.094066756310E+01 -2.099343949613E+01 -2.104646607988E+01
 -2.109958363987E+01 -2.115261009604E+01 -2.120534386124E+01 -2.125756274875E+01
 -2.130902290112E+01 -2.135945775422E+01 -2.140857705254E+01 -2.145606593306E+01
 -2.150158409745E+01 -2.154476509364E+01 -2.158521573015E+01 -2.160428687066E+01
 -2.162251564817E+01 -2.163984523293E+01 -2.165621707827E+01 -2.167157092510E+01
 -2.168584481051E+01 -2.169897508066E+01 -2.171089640827E+01 -2.172154181488E+01
 -2.173084269831E+01 -2.173872886547E+01 -2.174512857089E+01 -2.174996856122E+01
 -2.175317412607E+01 -2.175466915538E+01 -2.175437620384E+01 -2.175221656244E+01
 -2.174811033769E+01 -2.174197653877E+01 -2.173373317284E+01 -2.172329734909E+01
 -2.171058539160E+01 -2.169551296151E+01 -2.167799518877E+01 -2.165794681379E+01
 -2.163528233915E+01 -2.160991619187E+01 -2.158176289622E+01 -2.155073725727E+01
 -2.151675455553E+01 -2.147973075240E+01 -2.143958270660E+01 -2.139622840152E+01
 -2.134958718309E+01 -2.129958000803E+01 -2.124612970203E+01 -2.118916122724E+01
 -2.112860195842E+01 -2.106438196707E+01 -2.099643431236E+01 -2.092469533808E+01
 -2.084910497407E+01 -2.076960704120E+01 -2.068614955802E+01 -2.059868504795E+01
 -2.050717084502E+01 -2.041156939660E+01 -2.031184856129E+01 -2.020798190001E+01
 -2.009994895834E+01 -1.998773553822E+01 -1.987133395674E+01 -1.975074329003E+01
 -1.962596960015E+01 -1.949702614256E+01 -1.936393355217E+01 -1.922672000568E+01
 -1.908542135812E+01 -1.894008125151E+01 -1.879075119398E+01 -1.863749060792E+01
 -1.848036684625E+01 -1.831945517692E+01 -1.815483873643E+01 -1.798660845490E+01
 -1.781486295686E+01 -1.763970844416E+01 -1.746125857032E+01 -1.727963431870E+01
 -1.709496390098E+01 -1.690738269677E+01 -1.671703326013E+01 -1.652406542416E+01
 -1.632863654055E+01 -1.613091189664E+01 -1.593106535815E+01 -1.572928029080E+01
 -1.552575081792E+01 -1.532068347390E+01 -1.511429931407E+01 -1.490683653943E+01
 -1.469855369065E+01 -1.448973345810E+01 -1.428068713990E+01 -1.407175975939E+01
 -1.386333583475E+01 -1.365584313621E+01 -1.344979228921E+01 -1.324585524121E+01