<?xml version="1.0" encoding="UTF-8" ?>
<psml version="1.1" energy_unit="hartree" length_unit="bohr"
 uuid="2823b9d0-4717-11e8-71b5-4868f7ab8cc5"
 xmlns="http://esl.cecam.org/PSML/ns/1.1">
<provenance creator="ONCVPSP-3.3.0+psml-3.3.0-73 (fully-relativistic)"
 date="2018-04-23">
<annotation action="semilocal-pseudopotential-generation"
 action-cont="projectors-generation" />
<input-file name="oncvpsp-input">
<![CDATA[# atsym z nc nv iexc psfile
O 8 1 2 4 both
# n l f
1 0 2.0
2 0 2.0
2 1 4.0
# lmax
2
# l rc ep ncon nbas qcut
0 1.35 0.0 4 8 8.4
1 1.45 0.0 4 8 9.3
2 1.25 0.1 4 8 6.0
# lloc lpopt rc5 dvloc0
4 5 1.2 0.0
# l nproj debl
0 2 1.0
1 2 1.0
2 1 1.0
# icmod fcfact
3 4 1.5
# epsh1 epsh2 depsh
-12.0 12.0 0.02
# rlmax drl
6.0 0.01
 0
]]>
</input-file>
</provenance>
<pseudo-atom-spec atomic-label="O" atomic-number="8" z-pseudo="6"
 flavor="Hamann&apos;s oncvpsp" relativity="dirac" spin-dft="no"
 core-corrections="yes">
<annotation pseudo-energy="-15.7561720202" />
<exchange-correlation>
<annotation oncvpsp-xc-code="4" oncvpsp-xc-type="GGA -- Perdew-Burke-Ernzerhof" />
<libxc-info number-of-functionals="2">
<functional name="Perdew, Burke &amp; Ernzerhof (GGA)" type="exchange" id="101" />
<functional name="Perdew, Burke &amp; Ernzerhof (GGA)" type="correlation"
 id="130" />
</libxc-info>
</exchange-correlation>
<valence-configuration total-valence-charge="6">
<shell n="2" l="s" occupation="2" />
<shell n="2" l="p" occupation="4" />
</valence-configuration>
</pseudo-atom-spec>
<grid npts="457">
<annotation type="sampled from oncvpsp log grid"
 recipe="r(i:1..N) = r1*exp(a*(i-1)) + r=0; resampled"
 recipe-cont="r1: scale; a: step" scale="0.625000000000E-04"
 step="0.119285708653E-01" delta="0.500000000000E-02" rmax="44.1243818316" />
<grid-data>
  0.000000000000E+00  5.038585340028E-03  1.006417880273E-02  1.509787304249E-02
  2.010240735005E-02  2.521609353432E-02  3.051869836261E-02  3.563794632140E-02
  4.112243467717E-02  4.633230903787E-02  5.158323284976E-02  5.674827400167E-02
  6.243049193037E-02  6.786726449336E-02  7.290266753181E-02  7.831167165686E-02
  8.412199615352E-02  8.929191396799E-02  9.477956140646E-02  1.006044653004E-01
  1.067873525493E-01  1.120061500728E-01  1.174799950991E-01  1.232213520374E-01
  1.292432944444E-01  1.355595347938E-01  1.421844557004E-01  1.473647654853E-01
  1.527338132677E-01  1.582984754767E-01  1.640658790751E-01  1.700434106874E-01
  1.762387260605E-01  1.826597598689E-01  1.893147358765E-01  1.962121774698E-01
  2.033609185741E-01  2.107701149672E-01  2.158589486230E-01  2.210706470785E-01
  2.264081767816E-01  2.318745758018E-01  2.374729555600E-01  2.432065025990E-01
  2.490784803978E-01  2.550922312285E-01  2.612511780593E-01  2.675588265023E-01
  2.740187668094E-01  2.806346759152E-01  2.874103195305E-01  2.943495542853E-01
  3.014563299240E-01  3.087346915536E-01  3.161887819465E-01  3.238228438978E-01
  3.316412226409E-01  3.396483683203E-01  3.478488385251E-01  3.562473008824E-01
  3.648485357149E-01  3.736574387612E-01  3.826790239627E-01  3.919184263172E-01
  4.013809048022E-01  4.110718453678E-01  4.209967640023E-01  4.260487251704E-01
  4.311613098724E-01  4.363352455909E-01  4.415712685380E-01  4.468701237604E-01
  4.522325652455E-01  4.576593560285E-01  4.631512683008E-01  4.687090835204E-01
  4.743335925227E-01  4.800255956330E-01  4.857859027806E-01  4.916153336139E-01
  4.975147176173E-01  5.034848942287E-01  5.095267129594E-01  5.156410335150E-01
  5.218287259171E-01  5.280906706281E-01  5.344277586757E-01  5.408408917798E-01
  5.473309824811E-01  5.538989542709E-01  5.605457417222E-01  5.672722906228E-01
  5.740795581103E-01  5.809685128076E-01  5.879401349613E-01  5.949954165809E-01
  6.021353615798E-01  6.093609859188E-01  6.166733177498E-01  6.240733975628E-01
  6.315622783336E-01  6.391410256736E-01  6.468107179816E-01  6.545724465974E-01
  6.624273159566E-01  6.703764437481E-01  6.784209610731E-01  6.865620126059E-01
  6.948007567572E-01  7.031383658383E-01  7.115760262283E-01  7.201149385431E-01
  7.287563178056E-01  7.375013936193E-01  7.463514103427E-01  7.553076272668E-01
  7.643713187940E-01  7.735437746195E-01  7.828262999150E-01  7.922202155140E-01
  8.017268581001E-01  8.113475803973E-01  8.210837513621E-01  8.309367563784E-01
  8.409079974550E-01  8.509988934244E-01  8.612108801455E-01  8.715454107073E-01
  8.820039556358E-01  8.925880031034E-01  9.032990591406E-01  9.141386478503E-01
  9.251083116245E-01  9.362096113640E-01  9.474441267004E-01  9.588134562208E-01
  9.703192176954E-01  9.819630483078E-01  9.937466048875E-01  1.005671564146E+00
  1.017739622916E+00  1.029952498391E+00  1.042311928372E+00  1.054819671512E+00
  1.067477507570E+00  1.080287237661E+00  1.093250684513E+00  1.106369692727E+00
  1.119646129040E+00  1.133081882588E+00  1.146678865179E+00  1.160439011562E+00
  1.174364279700E+00  1.188456651057E+00  1.202718130869E+00  1.217150748440E+00
  1.231756557421E+00  1.246537636110E+00  1.261496087743E+00  1.276634040796E+00
  1.291953649286E+00  1.307457093077E+00  1.323146578194E+00  1.339024337133E+00
  1.355092629178E+00  1.371353740728E+00  1.387809985617E+00  1.404463705444E+00
  1.421317269910E+00  1.438373077149E+00  1.455633554074E+00  1.473101156723E+00
  1.490778370604E+00  1.508667711051E+00  1.526771723584E+00  1.545092984267E+00
  1.563634100078E+00  1.582397709279E+00  1.601386481790E+00  1.620603119572E+00
  1.640050357007E+00  1.659730961291E+00  1.679647732826E+00  1.699803505620E+00
  1.720201147688E+00  1.740843561460E+00  1.761733684197E+00  1.782874488408E+00
  1.804268982269E+00  1.825920210056E+00  1.847831252577E+00  1.870005227608E+00
  1.892445290339E+00  1.915154633823E+00  1.938136489429E+00  1.961394127302E+00
  1.984930856830E+00  2.008750027112E+00  2.032855027437E+00  2.057249287766E+00
  2.081936279219E+00  2.106919514570E+00  2.132202548745E+00  2.157788979330E+00
  2.183682447082E+00  2.209886636447E+00  2.236405276084E+00  2.263242139397E+00
  2.290401045070E+00  2.317885857611E+00  2.345700487902E+00  2.373848893757E+00
  2.402335080482E+00  2.431163101448E+00  2.460337058665E+00  2.489861103369E+00
  2.519739436609E+00  2.549976309849E+00  2.580576025567E+00  2.611542937874E+00
  2.642881453128E+00  2.674596030566E+00  2.706691182933E+00  2.739171477128E+00
  2.772041534853E+00  2.805306033271E+00  2.838969705671E+00  2.873037342139E+00
  2.907513790244E+00  2.942403955727E+00  2.977712803196E+00  3.013445356834E+00
  3.049606701116E+00  3.086201981530E+00  3.123236405308E+00  3.160715242172E+00
  3.198643825078E+00  3.237027550979E+00  3.275871881591E+00  3.315182344170E+00
  3.354964532300E+00  3.395224106687E+00  3.435966795968E+00  3.477198397519E+00
  3.518924778289E+00  3.561151875629E+00  3.603885698137E+00  3.647132326514E+00
  3.690897914432E+00  3.735188689406E+00  3.780010953678E+00  3.825371085123E+00
  3.871275538144E+00  3.917730844602E+00  3.964743614737E+00  4.012320538114E+00
  4.060468384571E+00  4.109194005186E+00  4.158504333248E+00  4.208406385247E+00
  4.258907261870E+00  4.310014149013E+00  4.361734318801E+00  4.414075130626E+00
  4.467044032194E+00  4.520648560580E+00  4.574896343307E+00  4.629795099427E+00
  4.685352640620E+00  4.741576872307E+00  4.798475794775E+00  4.856057504312E+00
  4.914330194364E+00  4.973302156697E+00  5.032981782577E+00  5.093377563968E+00
  5.154498094735E+00  5.216352071872E+00  5.278948296735E+00  5.342295676296E+00
  5.406403224411E+00  5.471280063104E+00  5.536935423861E+00  5.603378648948E+00
  5.670619192735E+00  5.738666623048E+00  5.807530622524E+00  5.877220989995E+00
  5.947747641875E+00  6.019120613577E+00  6.091350060940E+00  6.164446261671E+00
  6.238419616811E+00  6.313280652213E+00  6.389040020040E+00  6.465708500280E+00
  6.543297002283E+00  6.621816566311E+00  6.701278365107E+00  6.781693705488E+00
  6.863074029954E+00  6.945430918313E+00  7.028776089333E+00  7.113121402405E+00
  7.198478859234E+00  7.284860605545E+00  7.372278932811E+00  7.460746280005E+00
  7.550275235365E+00  7.640878538189E+00  7.732569080648E+00  7.825359909615E+00
  7.919264228531E+00  8.014295399273E+00  8.110466944064E+00  8.207792547393E+00
  8.306286057962E+00  8.405961490657E+00  8.506833028545E+00  8.608915024888E+00
  8.712222005187E+00  8.816768669249E+00  8.922569893280E+00  9.029640731999E+00
  9.137996420783E+00  9.247652377832E+00  9.358624206366E+00  9.470927696843E+00
  9.584578829205E+00  9.699593775155E+00  9.815988900457E+00  9.933780767263E+00
  1.005298613647E+01  1.017362197011E+01  1.029570543375E+01  1.041925389895E+01
  1.054428494574E+01  1.067081636509E+01  1.079886616147E+01  1.092845255541E+01
  1.105959398607E+01  1.119230911391E+01  1.132661682327E+01  1.146253622515E+01
  1.160008665985E+01  1.173928769977E+01  1.188015915217E+01  1.202272106200E+01
  1.216699371474E+01  1.231299763932E+01  1.246075361099E+01  1.261028265432E+01
  1.276160604617E+01  1.291474531873E+01  1.306972226255E+01  1.322655892970E+01
  1.338527763686E+01  1.354590096850E+01  1.370845178012E+01  1.387295320148E+01
  1.403942863990E+01  1.420790178358E+01  1.437839660498E+01  1.455093736424E+01
  1.472554861261E+01  1.490225519597E+01  1.508108225832E+01  1.526205524542E+01
  1.544519990836E+01  1.563054230726E+01  1.581810881495E+01  1.600792612073E+01
  1.620002123418E+01  1.639442148899E+01  1.659115454686E+01  1.679024840142E+01
  1.699173138224E+01  1.719563215882E+01  1.740197974473E+01  1.761080350166E+01
  1.782213314368E+01  1.803599874141E+01  1.825243072631E+01  1.847145989502E+01
  1.869311741376E+01  1.891743482273E+01  1.914444404060E+01  1.937417736909E+01
  1.960666749752E+01  1.984194750749E+01  2.008005087758E+01  2.032101148811E+01
  2.056486362596E+01  2.081164198948E+01  2.106138169335E+01  2.131411827367E+01
  2.156988769295E+01  2.182872634527E+01  2.209067106141E+01  2.235575911415E+01
  2.262402822352E+01  2.289551656220E+01  2.317026276095E+01  2.344830591408E+01
  2.372968558505E+01  2.401444181207E+01  2.430261511381E+01  2.459424649518E+01
  2.488937745312E+01  2.518804998256E+01  2.549030658235E+01  2.579619026134E+01
  2.610574454447E+01  2.641901347901E+01  2.673604164076E+01  2.705687414044E+01
  2.738155663013E+01  2.771013530969E+01  2.804265693341E+01  2.837916881661E+01
  2.871971884241E+01  2.906435546852E+01  2.941312773414E+01  2.976608526695E+01
  3.012327829015E+01  3.048475762963E+01  3.085057472119E+01  3.122078161784E+01
  3.159543099726E+01  3.197457616923E+01  3.235827108326E+01  3.274657033625E+01
  3.313952918029E+01  3.353720353045E+01  3.393964997282E+01  3.434692577249E+01
  3.475908888176E+01  3.517619794834E+01  3.559831232372E+01  3.602549207161E+01
  3.645779797647E+01  3.689529155219E+01  3.733803505081E+01  3.778609147142E+01
  3.823952456908E+01  3.869839886391E+01  3.916277965027E+01  3.963273300608E+01
  4.010832580215E+01  4.058962571178E+01  4.107670122032E+01  4.156962163496E+01
  4.206845709458E+01  4.257327857972E+01  4.308415792267E+01  4.360116781774E+01
  4.412438183156E+01
</grid-data>
</grid>
<valence-charge total-charge="6" is-unscreening-charge="yes"
 rescaled-to-z-pseudo="no">
<radfunc>
<data npts="457">
  3.695148793190E+00  3.697316181046E+00  3.703793252545E+00  3.714592693804E+00
  3.729594043806E+00  3.749295211456E+00  3.774364577605E+00  3.803016808280E+00
  3.838520619130E+00  3.876805029090E+00  3.919831696943E+00  3.966446870715E+00
  4.022572990947E+00  4.080944590071E+00  4.139005197561E+00  4.205572030101E+00
  4.281814960023E+00  4.353679708082E+00  4.433998698724E+00  4.523673133281E+00
  4.623674877299E+00  4.711809074945E+00  4.807780343374E+00  4.912175353413E+00
  5.025600977909E+00  5.148679195254E+00  5.282040292076E+00  5.389188419881E+00
  5.502737107725E+00  5.622941437083E+00  5.750045824288E+00  5.884279618750E+00
  6.025852022417E+00  6.174946267692E+00  6.331712992307E+00  6.496262753249E+00
  6.668657628343E+00  6.848901864225E+00  6.973397020384E+00  7.101315938183E+00
  7.232603268664E+00  7.367184702357E+00  7.504965210673E+00  7.645827215024E+00
  7.789628691779E+00  7.936201223450E+00  8.085348009151E+00  8.236841850254E+00
  8.390423130417E+00  8.545797812691E+00  8.702635480248E+00  8.860567451415E+00
  9.019185004080E+00  9.178037749134E+00  9.336632197378E+00  9.494430569158E+00
  9.650849900783E+00  9.805261506433E+00  9.956990858602E+00  1.010531795395E+01
  1.024947823456E+01  1.038866413674E+01  1.052202734039E+01  1.064868179146E+01
  1.076770756713E+01  1.087815564893E+01  1.097905366142E+01  1.102561277777E+01
  1.106941262351E+01  1.111032826064E+01  1.114823474616E+01  1.118300743386E+01
  1.121452229257E+01  1.124265624062E+01  1.126728749589E+01  1.128829594127E+01
  1.130556350452E+01  1.131897455209E+01  1.132841629573E+01  1.133377921087E+01
  1.133495746569E+01  1.133184935927E+01  1.132435776743E+01  1.131239059454E+01
  1.129586122929E+01  1.127468900260E+01  1.124879964527E+01  1.121812574309E+01
  1.118260718694E+01  1.114219161512E+01  1.109683484525E+01  1.104650129267E+01
  1.099116437249E+01  1.093080688202E+01  1.086542136049E+01  1.079501042288E+01
  1.071958706443E+01  1.063917493280E+01  1.055380856453E+01  1.046353358265E+01
  1.036840685254E+01  1.026849659295E+01  1.016388243954E+01  1.005465545844E+01
  9.940918107494E+00  9.822784143232E+00  9.700378471937E+00  9.573836943457E+00
  9.443306086924E+00  9.308942787884E+00  9.170913906860E+00  9.029395839825E+00
  8.884574021596E+00  8.736642373669E+00  8.585802698567E+00  8.432264023298E+00
  8.276241895074E+00  8.117957632959E+00  7.957637539618E+00  7.795512077827E+00
  7.631815016857E+00  7.466782554217E+00  7.300652418632E+00  7.133662960387E+00
  6.966052235424E+00  6.798057089700E+00  6.629912250437E+00  6.461849430844E+00
  6.294096454850E+00  6.126876408193E+00  5.960406821978E+00  5.794898894490E+00
  5.630556756642E+00  5.467576785992E+00  5.306146973723E+00  5.146446348426E+00
  4.988644459914E+00  4.832900925675E+00  4.679365041941E+00  4.528175460703E+00
  4.379459933423E+00  4.233335121590E+00  4.089906473759E+00  3.949268168231E+00
  3.811503120114E+00  3.676683051191E+00  3.544868620735E+00  3.416109615220E+00
  3.290445194737E+00  3.167904193865E+00  3.048505474655E+00  2.932258329407E+00
  2.819162930830E+00  2.709210827145E+00  2.602385479524E+00  2.498662839063E+00
  2.398011960128E+00  2.300395646493E+00  2.205771126047E+00  2.114090749083E+00
  2.025302704259E+00  1.939351745255E+00  1.856179920065E+00  1.775727293642E+00
  1.697932653512E+00  1.622734351909E+00  1.550071776879E+00  1.479887082233E+00
  1.412125742467E+00  1.346736535868E+00  1.283671728771E+00  1.222886674463E+00
  1.164337957037E+00  1.107980741027E+00  1.053768943450E+00  1.001655360112E+00
  9.515918150384E-01  9.035293053172E-01  8.574181411370E-01  8.132080808061E-01
  7.708484605848E-01  7.302883191834E-01  6.914765168112E-01  6.543618486841E-01
  6.188931529288E-01  5.850194128405E-01  5.526898534796E-01  5.218540326111E-01
  4.924619260114E-01  4.644640071875E-01  4.378113215700E-01  4.124555552590E-01
  3.883490984139E-01  3.654451033959E-01  3.436975377795E-01  3.230612323643E-01
  3.034919243240E-01  2.849462956410E-01  2.673820069798E-01  2.507577271601E-01
  2.350331583933E-01  2.201690574531E-01  2.061272529506E-01  1.928706588889E-01
  1.803632846736E-01  1.685702417547E-01  1.574577470774E-01  1.469931235187E-01
  1.371447974841E-01  1.278822938415E-01  1.191762283618E-01  1.109982978400E-01
  1.033212680634E-01  9.611895979272E-02  8.936623292044E-02  8.303896896347E-02
  7.711405204803E-02  7.156934853783E-02  6.638368545396E-02  6.153682782966E-02
  5.700945513977E-02  5.278313693847E-02  4.884030783465E-02  4.516424192879E-02
  4.173902682970E-02  3.854953736370E-02  3.558140908311E-02  3.282101167486E-02
  3.025542236392E-02  2.787239940008E-02  2.566035571049E-02  2.360833279386E-02
  2.170597492634E-02  1.994350374260E-02  1.831169324973E-02  1.680184532556E-02
  1.540576574702E-02  1.411574078865E-02  1.292451442572E-02  1.182526617132E-02
  1.081158957146E-02  9.877471377651E-03  9.017271411784E-03  8.225703133868E-03
  7.497814919154E-03  6.828972047520E-03  6.214839404516E-03  5.651364890370E-03
  5.134763530381E-03  4.661502277583E-03  4.228285496272E-03  3.832041112996E-03
  3.469907419843E-03  3.139220513408E-03  2.837502351554E-03  2.562449409094E-03
  2.311921912719E-03  2.083933634928E-03  1.876642226309E-03  1.688340065316E-03
  1.517445604603E-03  1.362495193078E-03  1.222135353031E-03  1.095115491985E-03
  9.802810293553E-04  8.765669184491E-04  7.829915448887E-04  6.986509831347E-04
  6.227135934006E-04  5.544149419024E-04  4.930530280499E-04  4.379838028500E-04
  3.886169634630E-04  3.444120095036E-04  3.048745473265E-04  2.695528291578E-04
  2.380345145395E-04  2.099436421352E-04  1.849378005007E-04  1.627054869582E-04
  1.429636442153E-04  1.254553648567E-04  1.099477542913E-04  9.622994317744E-05
  8.411124075783E-05  7.341942093646E-05  6.399913330011E-05  5.571043164880E-05
  4.842741294116E-05  4.203695988907E-05  3.643758075107E-05  3.153834017699E-05
  2.725787524815E-05  2.352349113888E-05  2.027033109745E-05  1.744061570753E-05
  1.498294664630E-05  1.285167040203E-05  1.100629765341E-05  9.410974244424E-06
  8.033999913290E-06  6.847391151273E-06  5.826484777258E-06  4.949579017224E-06
  4.197609073611E-06  3.553854358436E-06  3.003674745621E-06  2.534273372416E-06
  2.134483686942E-06  1.794578598806E-06  1.506099742337E-06  1.261705007380E-06
  1.055032630762E-06  8.805802725012E-07  7.335976248139E-07  6.099912188814E-07
  5.062402044692E-07  4.193219808930E-07  3.466466547067E-07  2.859993900229E-07
  2.354898017689E-07  1.935076206594E-07  1.586839314446E-07  1.298573533236E-07
  1.060445935443E-07  8.641486238733E-08  7.026769022664E-08  5.701373541892E-08
  4.615821566447E-08  3.728663546146E-08  3.005251859225E-08  2.416688748785E-08
  1.938926105306E-08  1.551996933683E-08  1.239360752343E-08  9.873473317890E-09
  7.846851109260E-09  6.221023513497E-09  4.919906209221E-09  3.881215558529E-09
  3.054090514351E-09  2.397100907853E-09  1.876583525580E-09  1.465255557218E-09
  1.141062141763E-09  8.862209732824E-10  6.864323486766E-10  5.302277413647E-10
  4.084340502927E-10  3.137341791390E-10  2.403076142693E-10  1.835372533213E-10
  1.397709441488E-10  1.061280751731E-10  8.034315644141E-11  6.063968435627E-11
  4.562872602036E-11  3.422762120946E-11  2.559500751393E-11  1.907904924072E-11
  1.417627382916E-11  1.049918167584E-11  7.750264101273E-12  5.701951190353E-12
  0.000000000000E+00  0.000000000000E+00  0.000000000000E+00  0.000000000000E+00
  0.000000000000E+00  0.000000000000E+00  0.000000000000E+00  0.000000000000E+00
  0.000000000000E+00  0.000000000000E+00  0.000000000000E+00  0.000000000000E+00
  0.000000000000E+00  0.000000000000E+00  0.000000000000E+00  0.000000000000E+00
  0.000000000000E+00  0.000000000000E+00  0.000000000000E+00  0.000000000000E+00
  0.000000000000E+00  0.000000000000E+00  0.000000000000E+00  0.000000000000E+00
  0.000000000000E+00  0.000000000000E+00  0.000000000000E+00  0.000000000000E+00
  0.000000000000E+00  0.000000000000E+00  0.000000000000E+00  0.000000000000E+00
  0.000000000000E+00  0.000000000000E+00  0.000000000000E+00  0.000000000000E+00
  0.000000000000E+00  0.000000000000E+00  0.000000000000E+00  0.000000000000E+00
  0.000000000000E+00  0.000000000000E+00  0.000000000000E+00  0.000000000000E+00
  0.000000000000E+00  0.000000000000E+00  0.000000000000E+00  0.000000000000E+00
  0.000000000000E+00  0.000000000000E+00  0.000000000000E+00  0.000000000000E+00
  0.000000000000E+00  0.000000000000E+00  0.000000000000E+00  0.000000000000E+00
  0.000000000000E+00  0.000000000000E+00  0.000000000000E+00  0.000000000000E+00
  0.000000000000E+00  0.000000000000E+00  0.000000000000E+00  0.000000000000E+00
  0.000000000000E+00  0.000000000000E+00  0.000000000000E+00  0.000000000000E+00
  0.000000000000E+00  0.000000000000E+00  0.000000000000E+00  0.000000000000E+00
  0.000000000000E+00  0.000000000000E+00  0.000000000000E+00  0.000000000000E+00
  0.000000000000E+00  0.000000000000E+00  0.000000000000E+00  0.000000000000E+00
  0.000000000000E+00  0.000000000000E+00  0.000000000000E+00  0.000000000000E+00
  0.000000000000E+00  0.000000000000E+00  0.000000000000E+00  0.000000000000E+00
  0.000000000000E+00  0.000000000000E+00  0.000000000000E+00  0.000000000000E+00
  0.000000000000E+00
</data>
</radfunc>
</valence-charge>
<pseudocore-charge matching-radius="0.382679023963"
 number-of-continuous-derivatives="4">
<annotation model-charge-form="Teter function with specified parameters" />
<radfunc>
<data npts="290">
  4.302478926281E+01  4.301431679023E+01  4.298302154908E+01  4.293084535199E+01
  4.285837525888E+01  4.276321335466E+01  4.264214219251E+01  4.250379591608E+01
  4.233240852151E+01  4.214764960053E+01  4.194006790798E+01  4.171524853841E+01
  4.144466189984E+01  4.116336807280E+01  4.088369167753E+01  4.056318545707E+01
  4.019627834301E+01  3.985062182827E+01  3.946450742796E+01  3.903367153915E+01
  3.855352753663E+01  3.813062875755E+01  3.767040138662E+01  3.717009801774E+01
  3.662688390125E+01  3.603786129349E+01  3.540010126778E+01  3.488803928650E+01
  3.434570671147E+01  3.377192420415E+01  3.316556191890E+01  3.252555838800E+01
  3.185094193842E+01  3.114085477103E+01  3.039457979561E+01  2.961157026339E+01
  2.879148216996E+01  2.793420931260E+01  2.734210685981E+01  2.673367267670E+01
  2.610910047394E+01  2.546865700501E+01  2.481268760422E+01  2.414162171599E+01
  2.345597834774E+01  2.275637136873E+01  2.204351456565E+01  2.131822635426E+01
  2.058143403484E+01  1.983417746669E+01  1.907761202592E+01  1.831301069934E+01
  1.754176515753E+01  1.676538564169E+01  1.598549949283E+01  1.520384814844E+01
  1.442228243232E+01  1.364275596775E+01  1.286731655480E+01  1.209809536839E+01
  1.133729385806E+01  1.058716826139E+01  9.850011684081E+00  9.128133749515E+00
  8.423837880498E+00  7.739396346035E+00  7.077023285363E+00  6.754781423185E+00
  6.438846009960E+00  6.129464465468E+00  5.826874979937E+00  5.531305539328E+00
  5.242972952047E+00  4.962081882769E+00  4.688823899429E+00  4.423376539781E+00
  4.165902404282E+00  3.916548282302E+00  3.675444318964E+00  3.442703230093E+00
  3.218419572906E+00  3.002669080176E+00  2.795508065617E+00  2.596972908163E+00
  2.407079622709E+00  2.225823524606E+00  2.053178994896E+00  1.889099352847E+00
  1.733516841774E+00  1.586342733519E+00  1.447467556158E+00  1.316761448654E+00
  1.194074645158E+00  1.079238090571E+00  9.720641877120E-01  8.723476752525E-01
  7.798666340032E-01  6.943836178064E-01  6.156469036722E-01  5.433918542330E-01
  4.773423839849E-01  4.172125191751E-01  3.627080396161E-01  3.135281891791E-01
  2.693674402818E-01  2.299172963568E-01  1.948681151165E-01  1.639109344337E-01
  1.367392818843E-01  1.130509484673E-01  9.254970676878E-02  7.494695388603E-02
  5.996325981427E-02  4.732980271988E-02  3.678967361009E-02  2.809903435255E-02
  2.102811480118E-02  1.536203693219E-02  1.090145636544E-02  7.463014407723E-03
  4.879596764860E-03  3.000398274655E-03  1.690796351369E-03  8.320392321535E-04
  3.207584983100E-04  6.831862414625E-05  1.939469309975E-08  5.416984056815E-05
  1.810547751223E-04  3.418170018226E-04  5.072797127810E-04  6.567344581911E-04
  7.767202818977E-04  8.598191592987E-04  9.034917301692E-04  9.089755039535E-04
  8.802652665251E-04  8.231923986268E-04  7.446163152771E-04  6.517373636198E-04
  5.515364054303E-04  4.503421071225E-04  3.535228224556E-04  2.652960429591E-04
  1.886448666447E-04  1.253279437398E-04  7.596702636441E-05  4.019467749432E-05
  1.684394926871E-05  4.161948106961E-06  3.014716741513E-08  2.176023618074E-06
  8.362983690929E-06  1.654844791095E-05  2.500322528939E-05  3.238870918433E-05
  3.779176900847E-05  4.072028422768E-05  4.106488092862E-05  3.903442905541E-05
  3.507412685294E-05  2.977547886003E-05  2.378716600578E-05  1.773477380796E-05
  1.215570830603E-05  7.453559254791E-06  3.873871514080E-06  1.500980984165E-06
  2.734800470103E-07  1.419395339688E-08  4.694243324961E-07  1.351739037336E-06
  2.380778270656E-06  3.317351168281E-06  3.987392293038E-06  4.293956637721E-06
  4.217143570106E-06  3.803435246304E-06  3.147213504581E-06  2.368027125412E-06
  1.587431532402E-06  9.089078937608E-07  4.035615937590E-07  1.031453696391E-07
  6.436516369749E-10  0.000000000000E+00  0.000000000000E+00  0.000000000000E+00
  0.000000000000E+00  0.000000000000E+00  0.000000000000E+00  0.000000000000E+00
  0.000000000000E+00  0.000000000000E+00  0.000000000000E+00  0.000000000000E+00
  0.000000000000E+00  0.000000000000E+00  0.000000000000E+00  0.000000000000E+00
  0.000000000000E+00  0.000000000000E+00  0.000000000000E+00  0.000000000000E+00
  0.000000000000E+00  0.000000000000E+00  0.000000000000E+00  0.000000000000E+00
  0.000000000000E+00  0.000000000000E+00  0.000000000000E+00  0.000000000000E+00
  0.000000000000E+00  0.000000000000E+00  0.000000000000E+00  0.000000000000E+00
  0.000000000000E+00  0.000000000000E+00  0.000000000000E+00  0.000000000000E+00
  0.000000000000E+00  0.000000000000E+00  0.000000000000E+00  0.000000000000E+00
  0.000000000000E+00  0.000000000000E+00  0.000000000000E+00  0.000000000000E+00
  0.000000000000E+00  0.000000000000E+00  0.000000000000E+00  0.000000000000E+00
  0.000000000000E+00  0.000000000000E+00  0.000000000000E+00  0.000000000000E+00
  0.000000000000E+00  0.000000000000E+00  0.000000000000E+00  0.000000000000E+00
  0.000000000000E+00  0.000000000000E+00  0.000000000000E+00  0.000000000000E+00
  0.000000000000E+00  0.000000000000E+00  0.000000000000E+00  0.000000000000E+00
  0.000000000000E+00  0.000000000000E+00  0.000000000000E+00  0.000000000000E+00
  0.000000000000E+00  0.000000000000E+00  0.000000000000E+00  0.000000000000E+00
  0.000000000000E+00  0.000000000000E+00  0.000000000000E+00  0.000000000000E+00
  0.000000000000E+00  0.000000000000E+00  0.000000000000E+00  0.000000000000E+00
  0.000000000000E+00  0.000000000000E+00  0.000000000000E+00  0.000000000000E+00
  0.000000000000E+00  0.000000000000E+00  0.000000000000E+00  0.000000000000E+00
  0.000000000000E+00  0.000000000000E+00  0.000000000000E+00  0.000000000000E+00
  0.000000000000E+00  0.000000000000E+00  0.000000000000E+00  0.000000000000E+00
  0.000000000000E+00  0.000000000000E+00  0.000000000000E+00  0.000000000000E+00
  0.000000000000E+00  0.000000000000E+00  0.000000000000E+00  0.000000000000E+00
  0.000000000000E+00  0.000000000000E+00
</data>
</radfunc>
</pseudocore-charge>
<semilocal-potentials set="scalar_relativistic">
<slps n="2" l="s" rc="1.35509262918">
<radfunc>
<data npts="290">
 -4.814363027354E+00 -4.814656975956E+00 -4.815536821367E+00 -4.817008785018E+00
 -4.819063744850E+00 -4.821780532941E+00 -4.825266904816E+00 -4.829291276356E+00
 -4.834335979278E+00 -4.839846568006E+00 -4.846125886429E+00 -4.853029857690E+00
 -4.861478832853E+00 -4.870420317849E+00 -4.879466729846E+00 -4.890021166261E+00
 -4.902343336728E+00 -4.914180129414E+00 -4.927657631264E+00 -4.943005963259E+00
 -4.960485373802E+00 -4.976199066053E+00 -4.993629788549E+00 -5.012958972266E+00
 -5.034383789389E+00 -5.058117495306E+00 -5.084389495002E+00 -5.105906216305E+00
 -5.129097495193E+00 -5.154076972444E+00 -5.180962427824E+00 -5.209875268148E+00
 -5.240939873027E+00 -5.274282779115E+00 -5.310031681607E+00 -5.348314229630E+00
 -5.389256589516E+00 -5.432981747710E+00 -5.463736314100E+00 -5.495813363548E+00
 -5.529244248558E+00 -5.564058129765E+00 -5.600281562744E+00 -5.637938046553E+00
 -5.677047531792E+00 -5.717625885997E+00 -5.759684314318E+00 -5.803228733382E+00
 -5.848259096569E+00 -5.894768668879E+00 -5.942743249711E+00 -5.992160342160E+00
 -6.042988266900E+00 -6.095185219448E+00 -6.148698268804E+00 -6.203462295914E+00
 -6.259398870341E+00 -6.316415064496E+00 -6.374402206737E+00 -6.433234578521E+00
 -6.492768068356E+00 -6.552838807185E+00 -6.613261829080E+00 -6.673829828427E+00
 -6.734312122232E+00 -6.794453972790E+00 -6.853976478005E+00 -6.883411866121E+00
 -6.912577286103E+00 -6.941431578850E+00 -6.969932422247E+00 -6.998036468111E+00
 -7.025699505368E+00 -7.052876649393E+00 -7.079522556371E+00 -7.105591660353E+00
 -7.131038429054E+00 -7.155817633036E+00 -7.179884621158E+00 -7.203195593872E+00
 -7.225707864584E+00 -7.247380098459E+00 -7.268172517911E+00 -7.288047064327E+00
 -7.306967506886E+00 -7.324899491494E+00 -7.341810525684E+00 -7.357669899055E+00
 -7.372448542751E+00 -7.386118835824E+00 -7.398654370189E+00 -7.410029689166E+00
 -7.420220017430E+00 -7.429200999724E+00 -7.436948469067E+00 -7.443438257274E+00
 -7.448646064777E+00 -7.452547396635E+00 -7.455117570243E+00 -7.456331793932E+00
 -7.456165310941E+00 -7.454593598844E+00 -7.451592610814E+00 -7.447139042519E+00
 -7.441210606863E+00 -7.433786298382E+00 -7.424846629900E+00 -7.414373825678E+00
 -7.402351958066E+00 -7.388767017956E+00 -7.373606913367E+00 -7.356861394719E+00
 -7.338521909678E+00 -7.318581394671E+00 -7.297034013752E+00 -7.273874858562E+00
 -7.249099625176E+00 -7.222704284743E+00 -7.194684764917E+00 -7.165036658136E+00
 -7.133754971199E+00 -7.100833928163E+00 -7.066266836023E+00 -7.030046019740E+00
 -6.992162830576E+00 -6.952607729273E+00 -6.911370443704E+00 -6.868440199205E+00
 -6.823806018929E+00 -6.777457091235E+00 -6.729383201175E+00 -6.679575223666E+00
 -6.628025676586E+00 -6.574729332866E+00 -6.519683891556E+00 -6.462890708542E+00
 -6.404355588214E+00 -6.344089637671E+00 -6.282110185004E+00 -6.218441762739E+00
 -6.153117156547E+00 -6.086178517907E+00 -6.017678537289E+00 -5.947681671828E+00
 -5.876265418112E+00 -5.803521616754E+00 -5.729557770794E+00 -5.654498354615E+00
 -5.578486084149E+00 -5.501683112603E+00 -5.424272108946E+00 -5.346457169205E+00
 -5.268464503357E+00 -5.190542833843E+00 -5.112963435720E+00 -5.036019744164E+00
 -4.960026452801E+00 -4.885318026810E+00 -4.812246558615E+00 -4.741178903514E+00