 
             +---------------------------------------------------+
             |                                                   |
             |                   WANNIER90                       |
             |                                                   |
             +---------------------------------------------------+
             |                                                   |
             |        Welcome to the Maximally-Localized         |
             |        Generalized Wannier Functions code         |
             |            http://www.wannier.org                 |
             |                                                   |
             |                                                   |
             |  Wannier90 Developer Group:                       |
             |    Giovanni Pizzi    (EPFL)                       |
             |    Valerio Vitale    (Cambridge)                  |
             |    David Vanderbilt  (Rutgers University)         |
             |    Nicola Marzari    (EPFL)                       |
             |    Ivo Souza         (Universidad del Pais Vasco) |
             |    Arash A. Mostofi  (Imperial College London)    |
             |    Jonathan R. Yates (University of Oxford)       |
             |                                                   |
             |  For the full list of Wannier90 3.x authors,      |
             |  please check the code documentation and the      |
             |  README on the GitHub page of the code            |
             |                                                   |
             |                                                   |
             |  Please cite                                      |
             |                                                   |
             |  [ref] "Wannier90 as a community code:            |
             |        new features and applications",            |
             |        G. Pizzi et al., J. Phys. Cond. Matt. 32,  |
             |        165902 (2020).                             |
             |        http://doi.org/10.1088/1361-648X/ab51ff    |
             |                                                   |
             |  in any publications arising from the use of      |
             |  this code. For the method please cite            |
             |                                                   |
             |  [ref] "Maximally Localized Generalised Wannier   |
             |         Functions for Composite Energy Bands"     |
             |         N. Marzari and D. Vanderbilt              |
             |         Phys. Rev. B 56 12847 (1997)              |
             |                                                   |
             |  [ref] "Maximally Localized Wannier Functions     |
             |         for Entangled Energy Bands"               |
             |         I. Souza, N. Marzari and D. Vanderbilt    |
             |         Phys. Rev. B 65 035109 (2001)             |
             |                                                   |
             |                                                   |
             | Copyright (c) 1996-2020                           |
             |        The Wannier90 Developer Group and          |
             |        individual contributors                    |
             |                                                   |
             |      Release: 3.1.0        5th March    2020      |
             |                                                   |
             | This program is free software; you can            |
             | redistribute it and/or modify it under the terms  |
             | of the GNU General Public License as published by |
             | the Free Software Foundation; either version 2 of |
             | the License, or (at your option) any later version|
             |                                                   |
             | This program is distributed in the hope that it   |
             | will be useful, but WITHOUT ANY WARRANTY; without |
             | even the implied warranty of MERCHANTABILITY or   |
             | FITNESS FOR A PARTICULAR PURPOSE. See the GNU     |
             | General Public License for more details.          |
             |                                                   |
             | You should have received a copy of the GNU General|
             | Public License along with this program; if not,   |
             | write to the Free Software Foundation, Inc.,      |
             | 675 Mass Ave, Cambridge, MA 02139, USA.           |
             |                                                   |
             +---------------------------------------------------+
             |    Execution started on 11Nov2021 at 17:55:50     |
             +---------------------------------------------------+
 
 ******************************************************************************
 * -> Using CODATA 2006 constant values                                       *
 *    (http://physics.nist.gov/cuu/Constants/index.html)                      *
 * -> Using Bohr value from CODATA                                            *
 ******************************************************************************
 

 Running in serial (with parallel executable)
 
                                    ------
                                    SYSTEM
                                    ------
 
                              Lattice Vectors (Ang)
                    a_1    -5.908583   0.000000   3.411322
                    a_2    -5.908583   0.000000  -3.411322
                    a_3     0.000000 -13.838304   0.000000
 
                   Unit Cell Volume:     557.85192  (Ang^3)
 
                        Reciprocal-Space Vectors (Ang^-1)
                    b_1    -0.531700   0.000000   0.920931
                    b_2    -0.531700   0.000000  -0.920931
                    b_3     0.000000  -0.454043   0.000000
  
 *----------------------------------------------------------------------------*
 |   Site       Fractional Coordinate          Cartesian Coordinate (Ang)     |
 +----------------------------------------------------------------------------+
 | Cr   1   0.33333   0.33333   0.50000   |   -3.93906  -6.91915   0.00000    |
 | Cr   2   0.66667   0.66667   0.50000   |   -7.87811  -6.91915   0.00000    |
 | I    1   0.35393   0.00000   0.38811   |   -2.09120  -5.37075   1.20735    |
 | I    2   1.00000   0.35393   0.61189   |   -7.99978  -8.46756   2.20397    |
 | I    3   0.64607   0.35393   0.38811   |   -5.90858  -5.37075   0.99661    |
 | I    4   0.35393   0.64607   0.61189   |   -5.90858  -8.46756  -0.99661    |
 | I    5   0.00000   0.64607   0.38811   |   -3.81738  -5.37075  -2.20397    |
 | I    6   0.64607   1.00000   0.61189   |   -9.72597  -8.46756  -1.20735    |
 *----------------------------------------------------------------------------*
                                ------------
                                K-POINT GRID
                                ------------
  
             Grid size =  9 x  9 x  1      Total points =   81
  
  
 *---------------------------------- MAIN ------------------------------------*
 |  Number of Wannier Functions               :                56             |
 |  Number of Objective Wannier Functions     :                56             |
 |  Number of input Bloch states              :                56             |
 |  Output verbosity (1=low, 5=high)          :                 1             |
 |  Timing Level (1=low, 5=high)              :                 1             |
 |  Optimisation (0=memory, 3=speed)          :                 3             |
 |  Length Unit                               :               Ang             |
 |  Post-processing setup (write *.nnkp)      :                 F             |
 |  Using Gamma-only branch of algorithms     :                 F             |
 *----------------------------------------------------------------------------*
 *------------------------------- WANNIERISE ---------------------------------*
 |  Total number of iterations                :               300             |
 |  Number of CG steps before reset           :                 5             |
 |  Trial step length for line search         :             2.000             |
 |  Convergence tolerence                     :         0.100E-09             |
 |  Convergence window                        :                -1             |
 |  Iterations between writing output         :                 1             |
 |  Iterations between backing up to disk     :               100             |
 |  Write r^2_nm to file                      :                 F             |
 |  Write xyz WF centres to file              :                 T             |
 |  Write on-site energies <0n|H|0n> to file  :                 F             |
 |  Use guiding centre to control phases      :                 T             |
 |  Use phases for initial projections        :                 F             |
 |  Iterations before starting guiding centres:                 0             |
 |  Iterations between using guiding centres  :                 1             |
 *----------------------------------------------------------------------------*
 *-------------------------------- PLOTTING ----------------------------------*
 |  Plotting interpolated bandstructure       :                 T             |
 |   Number of K-path sections                :                 6             |
 |   Divisions along first K-path section     :               410             |
 |   Output format                            :           gnuplot             |
 |   Output mode                              :               s-k             |
 *----------------------------------------------------------------------------*
 |   K-space path sections:                                                   |
 |    From: X       0.500  0.000  0.000     To: GM      0.000  0.000  0.500   |
 |    From: GM      0.000  0.000  0.500     To: Y       0.000  0.500  0.000   |
 |    From: Y       0.000  0.500  0.000     To: S       0.500  0.500  0.000   |
 |    From: S       0.500  0.500  0.000     To: X       0.500  0.000  0.000   |
 |    From: X       0.500  0.000  0.000     To: R       0.500  0.500  0.500   |
 |    From: R       0.500  0.500  0.500     To: GM      0.000  0.000  0.000   |
 *----------------------------------------------------------------------------*
 |  Plotting Hamiltonian in WF basis          :                 T             |
 *----------------------------------------------------------------------------*
 Time to read parameters        0.015 (sec)

 *---------------------------------- K-MESH ----------------------------------*
 +----------------------------------------------------------------------------+
 |                    Distance to Nearest-Neighbour Shells                    |
 |                    ------------------------------------                    |
 |          Shell             Distance (Ang^-1)          Multiplicity         |
 |          -----             -----------------          ------------         |
 |             1                   0.118156                      6            |
 |             2                   0.204651                      6            |
 |             3                   0.236311                      6            |
 |             4                   0.312610                     12            |
 |             5                   0.354467                      6            |
 |             6                   0.409303                      6            |
 |             7                   0.426016                     12            |
 |             8                   0.454043                      2            |
 |             9                   0.469165                     12            |
 |            10                   0.472622                      6            |
 |            11                   0.498033                     12            |
 |            12                   0.511857                     12            |
 |            13                   0.515028                     12            |
 |            14                   0.541457                     12            |
 |            15                   0.551253                     24            |
 |            16                   0.576022                     12            |
 |            17                   0.590778                      6            |
 |            18                   0.611297                     12            |
 |            19                   0.613954                      6            |
 |            20                   0.622611                     24            |
 |            21                   0.625220                     12            |
 |            22                   0.655383                     12            |
 |            23                   0.657862                     12            |
 |            24                   0.686592                     24            |
 +----------------------------------------------------------------------------+
 | The b-vectors are chosen automatically                                     |
 | SVD found small singular value, Rejecting this shell and trying the next   |
 | SVD found small singular value, Rejecting this shell and trying the next   |
 | SVD found small singular value, Rejecting this shell and trying the next   |
 | SVD found small singular value, Rejecting this shell and trying the next   |
 | The following shells are used:   1,  8                                     |
 +----------------------------------------------------------------------------+
 |                        Shell   # Nearest-Neighbours                        |
 |                        -----   --------------------                        |
 |                          1               6                                 |
 |                          8               2                                 |
 +----------------------------------------------------------------------------+
 | Completeness relation is fully satisfied [Eq. (B1), PRB 56, 12847 (1997)]  |
 +----------------------------------------------------------------------------+
 |                  b_k Vectors (Ang^-1) and Weights (Ang^2)                  |
 |                  ----------------------------------------                  |
 |            No.         b_k(x)      b_k(y)      b_k(z)        w_b           |
 |            ---        --------------------------------     --------        |
 |             1        -0.059078    0.000000    0.102326    23.876503        |
 |             2        -0.059078    0.000000   -0.102326    23.876503        |
 |             3        -0.118156    0.000000    0.000000    23.876503        |
 |             4         0.059078    0.000000   -0.102326    23.876503        |
 |             5         0.059078    0.000000    0.102326    23.876503        |
 |             6         0.118156    0.000000    0.000000    23.876503        |
 |             7         0.000000   -0.454043    0.000000     2.425359        |
 |             8         0.000000    0.454043    0.000000     2.425359        |
 +----------------------------------------------------------------------------+
 |                           b_k Directions (Ang^-1)                          |
 |                           -----------------------                          |
 |            No.           x           y           z                         |
 |            ---        --------------------------------                     |
 |             1        -0.059078    0.000000    0.102326                     |
 |             2        -0.059078    0.000000   -0.102326                     |
 |             3        -0.118156    0.000000    0.000000                     |
 |             4         0.000000   -0.454043    0.000000                     |
 +----------------------------------------------------------------------------+
  
 Time to get kmesh              0.047 (sec)
 *============================================================================*
 |                              MEMORY ESTIMATE                               |
 |         Maximum RAM allocated during each phase of the calculation         |
 *============================================================================*
 |                            Wannierise:           79.24 Mb                  |
 |                          plot_wannier:           79.24 Mb                  |
 *----------------------------------------------------------------------------*
  
 Starting a new Wannier90 calculation ...


 Reading overlaps from wannier90.mmn    : File generated by VASP: unknown system

 Reading projections from wannier90.amn : File generated by VASP: unknown system

 Time to read overlaps          2.151 (sec)

 Writing checkpoint file wannier90.chk... done

 
 *------------------------------- WANNIERISE ---------------------------------*
 +--------------------------------------------------------------------+<-- CONV
 | Iter  Delta Spread     RMS Gradient      Spread (Ang^2)      Time  |<-- CONV
 +--------------------------------------------------------------------+<-- CONV
 
 ------------------------------------------------------------------------------
 Initial State
  WF centre and spread    1  ( -3.934351, -6.919152,  0.000000 )     0.85191905
  WF centre and spread    2  ( -3.929159, -6.919152, -0.000000 )     1.26808160
  WF centre and spread    3  ( -3.944047, -6.919152, -0.000000 )     0.87036509
  WF centre and spread    4  ( -3.946160, -6.919152,  0.000000 )     1.28212512
  WF centre and spread    5  ( -3.934529, -6.919152, -0.000000 )     0.88341723
  WF centre and spread    6  ( -3.931508, -6.919152,  0.000000 )     1.15482101
  WF centre and spread    7  ( -3.938730, -6.919152, -0.000000 )     0.81540103
  WF centre and spread    8  ( -3.941785, -6.919152,  0.000000 )     1.24209336
  WF centre and spread    9  ( -3.943555, -6.919152,  0.000000 )     0.88402559
  WF centre and spread   10  ( -3.946574, -6.919152, -0.000000 )     1.15550051
  WF centre and spread   11  ( -7.882815, -6.919152, -0.000000 )     0.85191885
  WF centre and spread   12  ( -7.888007, -6.919152,  0.000000 )     1.26808140
  WF centre and spread   13  ( -7.873119, -6.919152,  0.000000 )     0.87036490
  WF centre and spread   14  ( -7.871006, -6.919152, -0.000000 )     1.28212492
  WF centre and spread   15  ( -7.882637, -6.919152,  0.000000 )     0.88341703
  WF centre and spread   16  ( -7.885658, -6.919152, -0.000000 )     1.15482082
  WF centre and spread   17  ( -7.878436, -6.919152,  0.000000 )     0.81540083
  WF centre and spread   18  ( -7.875382, -6.919152, -0.000000 )     1.24209316
  WF centre and spread   19  ( -7.873611, -6.919152, -0.000000 )     0.88402540
  WF centre and spread   20  ( -7.870592, -6.919152,  0.000000 )     1.15550031
  WF centre and spread   21  ( -2.121910, -5.455701,  1.243281 )     2.38819621
  WF centre and spread   22  ( -2.116080, -5.449787,  1.241316 )     2.42131644
  WF centre and spread   23  ( -2.101096, -5.426237,  1.194957 )     2.29134228
  WF centre and spread   24  ( -2.091743, -5.417852,  1.188178 )     2.30349061
  WF centre and spread   25  ( -2.129814, -5.349611,  1.229627 )     2.15165892
  WF centre and spread   26  ( -2.126881, -5.331330,  1.227952 )     2.17788014
  WF centre and spread   27  ( -8.030493, -8.382603,  2.168041 )     2.38819599
  WF centre and spread   28  ( -8.024663, -8.388518,  2.170006 )     2.42131632
  WF centre and spread   29  ( -8.009679, -8.412067,  2.216365 )     2.29134222
  WF centre and spread   30  ( -8.000326, -8.420452,  2.223144 )     2.30349028
  WF centre and spread   31  ( -8.038397, -8.488694,  2.181695 )     2.15165843
  WF centre and spread   32  ( -8.035464, -8.506974,  2.183370 )     2.17788020
  WF centre and spread   33  ( -5.908583, -5.411575,  1.015436 )     2.24480043
  WF centre and spread   34  ( -5.908583, -5.402046,  1.029681 )     2.24562694
  WF centre and spread   35  ( -5.908583, -5.470560,  0.931015 )     2.43214155
  WF centre and spread   36  ( -5.908583, -5.465851,  0.934318 )     2.47551108
  WF centre and spread   37  ( -5.908583, -5.349602,  0.952033 )     2.15175970
  WF centre and spread   38  ( -5.908583, -5.331338,  0.955350 )     2.17797507
  WF centre and spread   39  ( -5.908583, -8.426730, -1.015436 )     2.24480043
  WF centre and spread   40  ( -5.908583, -8.436259, -1.029681 )     2.24562694
  WF centre and spread   41  ( -5.908583, -8.367744, -0.931015 )     2.43214155
  WF centre and spread   42  ( -5.908583, -8.372453, -0.934318 )     2.47551108
  WF centre and spread   43  ( -5.908583, -8.488703, -0.952033 )     2.15175970
  WF centre and spread   44  ( -5.908583, -8.506966, -0.955350 )     2.17797507
  WF centre and spread   45  ( -3.786673, -5.455701, -2.168041 )     2.38819620
  WF centre and spread   46  ( -3.792503, -5.449786, -2.170006 )     2.42131654
  WF centre and spread   47  ( -3.807487, -5.426237, -2.216365 )     2.29134243
  WF centre and spread   48  ( -3.816840, -5.417852, -2.223144 )     2.30349049
  WF centre and spread   49  ( -3.778769, -5.349611, -2.181695 )     2.15165865
  WF centre and spread   50  ( -3.781702, -5.331331, -2.183370 )     2.17788041
  WF centre and spread   51  ( -9.695256, -8.382603, -1.243281 )     2.38819583
  WF centre and spread   52  ( -9.701086, -8.388518, -1.241316 )     2.42131606
  WF centre and spread   53  ( -9.716070, -8.412067, -1.194957 )     2.29134190
  WF centre and spread   54  ( -9.725423, -8.420452, -1.188178 )     2.30349023
  WF centre and spread   55  ( -9.687352, -8.488693, -1.229627 )     2.15165854
  WF centre and spread   56  ( -9.690285, -8.506974, -1.227952 )     2.17787976
  Sum of centres and spreads (**********,**********,  0.000000 )   103.20666183
 
      0     0.103E+03     0.0000000000      103.2066710206       0.00  <-- CONV
        O_D=      0.0131535 O_OD=      5.6571256 O_TOT=    103.2066710 <-- SPRD
 ------------------------------------------------------------------------------
 Cycle:      1
  WF centre and spread    1  ( -3.934277, -6.919152,  0.000000 )     0.83340182
  WF centre and spread    2  ( -3.928729, -6.919152, -0.000000 )     1.24928015
  WF centre and spread    3  ( -3.944161, -6.919152, -0.000000 )     0.85027716
  WF centre and spread    4  ( -3.946635, -6.919152,  0.000000 )     1.25971904
  WF centre and spread    5  ( -3.934554, -6.919152, -0.000000 )     0.86989199
  WF centre and spread    6  ( -3.931369, -6.919152,  0.000000 )     1.14683116
  WF centre and spread    7  ( -3.938695, -6.919152, -0.000000 )     0.79887575
  WF centre and spread    8  ( -3.941765, -6.919152,  0.000000 )     1.22782774
  WF centre and spread    9  ( -3.943564, -6.919152,  0.000000 )     0.87008774
  WF centre and spread   10  ( -3.946749, -6.919152, -0.000000 )     1.14733554
  WF centre and spread   11  ( -7.882889, -6.919152, -0.000000 )     0.83340162
  WF centre and spread   12  ( -7.888437, -6.919152,  0.000000 )     1.24927996
  WF centre and spread   13  ( -7.873005, -6.919152,  0.000000 )     0.85027696
  WF centre and spread   14  ( -7.870531, -6.919152, -0.000000 )     1.25971884
  WF centre and spread   15  ( -7.882612, -6.919152,  0.000000 )     0.86989180
  WF centre and spread   16  ( -7.885798, -6.919152, -0.000000 )     1.14683096
  WF centre and spread   17  ( -7.878471, -6.919152,  0.000000 )     0.79887555
  WF centre and spread   18  ( -7.875401, -6.919152, -0.000000 )     1.22782754
  WF centre and spread   19  ( -7.873602, -6.919152, -0.000000 )     0.87008754
  WF centre and spread   20  ( -7.870417, -6.919152,  0.000000 )     1.14733534
  WF centre and spread   21  ( -2.121043, -5.453307,  1.242741 )     2.36323324
  WF centre and spread   22  ( -2.115637, -5.448319,  1.240864 )     2.39865498
  WF centre and spread   23  ( -2.100506, -5.423932,  1.194699 )     2.27034986
  WF centre and spread   24  ( -2.091612, -5.416596,  1.188333 )     2.28812305
  WF centre and spread   25  ( -2.128737, -5.347467,  1.229010 )     2.13282095
  WF centre and spread   26  ( -2.126299, -5.329976,  1.227626 )     2.15983875
  WF centre and spread   27  ( -8.029626, -8.384997,  2.168581 )     2.36323309
  WF centre and spread   28  ( -8.024220, -8.389986,  2.170458 )     2.39865479
  WF centre and spread   29  ( -8.009089, -8.414373,  2.216623 )     2.27034975
  WF centre and spread   30  ( -8.000195, -8.421708,  2.222989 )     2.28812277
  WF centre and spread   31  ( -8.037320, -8.490838,  2.182312 )     2.13282044
  WF centre and spread   32  ( -8.034882, -8.508328,  2.183696 )     2.15983884
  WF centre and spread   33  ( -5.908583, -5.409290,  1.015808 )     2.22514052
  WF centre and spread   34  ( -5.908583, -5.400882,  1.029332 )     2.23336966
  WF centre and spread   35  ( -5.908583, -5.468160,  0.932232 )     2.40521833
  WF centre and spread   36  ( -5.908583, -5.464319,  0.935199 )     2.44934652
  WF centre and spread   37  ( -5.908583, -5.347464,  0.953283 )     2.13298546
  WF centre and spread   38  ( -5.908583, -5.329989,  0.956038 )     2.16004322
  WF centre and spread   39  ( -5.908583, -8.429014, -1.015808 )     2.22514052
  WF centre and spread   40  ( -5.908583, -8.437423, -1.029332 )     2.23336966
  WF centre and spread   41  ( -5.908583, -8.370144, -0.932232 )     2.40521833
  WF centre and spread   42  ( -5.908583, -8.373986, -0.935199 )     2.44934652
  WF centre and spread   43  ( -5.908583, -8.490841, -0.953283 )     2.13298546
  WF centre and spread   44  ( -5.908583, -8.508316, -0.956038 )     2.16004322
  WF centre and spread   45  ( -3.787540, -5.453307, -2.168581 )     2.36323330
  WF centre and spread   46  ( -3.792946, -5.448318, -2.170458 )     2.39865500
  WF centre and spread   47  ( -3.808077, -5.423932, -2.216623 )     2.27034995
  WF centre and spread   48  ( -3.816971, -5.416596, -2.222989 )     2.28812297
  WF centre and spread   49  ( -3.779846, -5.347467, -2.182312 )     2.13282066
  WF centre and spread   50  ( -3.782284, -5.329977, -2.183696 )     2.15983905
  WF centre and spread   51  ( -9.696123, -8.384998, -1.242741 )     2.36323286
  WF centre and spread   52  ( -9.701529, -8.389986, -1.240864 )     2.39865460
  WF centre and spread   53  ( -9.716660, -8.414373, -1.194699 )     2.27034948
  WF centre and spread   54  ( -9.725554, -8.421708, -1.188333 )     2.28812267
  WF centre and spread   55  ( -9.688429, -8.490838, -1.229010 )     2.13282057
  WF centre and spread   56  ( -9.690867, -8.508328, -1.227626 )     2.15983837
  Sum of centres and spreads (**********,**********,  0.000000 )   102.17134155
 
      1    -0.104E+01     1.4671471206      102.1713507370       0.25  <-- CONV
        O_D=      0.0106733 O_OD=      4.6242855 O_TOT=    102.1713507 <-- SPRD
 Delta: O_D= -0.2480152E-02 O_OD= -0.1032840E+01 O_TOT= -0.1035320E+01 <-- DLTA
 ------------------------------------------------------------------------------
 Cycle:      2
  WF centre and spread    1  ( -3.934253, -6.919152,  0.000000 )     0.82729492
  WF centre and spread    2  ( -3.928378, -6.919152, -0.000000 )     1.25084001
  WF centre and spread    3  ( -3.944216, -6.919152, -0.000000 )     0.84475471
  WF centre and spread    4  ( -3.947085, -6.919152,  0.000000 )     1.26199484
  WF centre and spread    5  ( -3.934536, -6.919152, -0.000000 )     0.86809404
  WF centre and spread    6  ( -3.931263, -6.919152,  0.000000 )     1.15239942
  WF centre and spread    7  ( -3.938651, -6.919152, -0.000000 )     0.79062290
  WF centre and spread    8  ( -3.941668, -6.919152,  0.000000 )     1.22673125
  WF centre and spread    9  ( -3.943590, -6.919152,  0.000000 )     0.86799968
  WF centre and spread   10  ( -3.946870, -6.919152, -0.000000 )     1.15276145
  WF centre and spread   11  ( -7.882913, -6.919152, -0.000000 )     0.82729472
  WF centre and spread   12  ( -7.888788, -6.919152,  0.000000 )     1.25083981
  WF centre and spread   13  ( -7.872950, -6.919152,  0.000000 )     0.84475452
  WF centre and spread   14  ( -7.870081, -6.919152, -0.000000 )     1.26199465
  WF centre and spread   15  ( -7.882630, -6.919152,  0.000000 )     0.86809384
  WF centre and spread   16  ( -7.885904, -6.919152, -0.000000 )     1.15239922
  WF centre and spread   17  ( -7.878515, -6.919152,  0.000000 )     0.79062271
  WF centre and spread   18  ( -7.875498, -6.919152, -0.000000 )     1.22673105
  WF centre and spread   19  ( -7.873576, -6.919152, -0.000000 )     0.86799948
  WF centre and spread   20  ( -7.870296, -6.919152,  0.000000 )     1.15276125
  WF centre and spread   21  ( -2.120204, -5.451591,  1.242044 )     2.34577970
  WF centre and spread   22  ( -2.115111, -5.447277,  1.240208 )     2.38131708
  WF centre and spread   23  ( -2.099820, -5.422311,  1.194504 )     2.25573888
  WF centre and spread   24  ( -2.091190, -5.415737,  1.188431 )     2.27613660
  WF centre and spread   25  ( -2.127719, -5.346040,  1.228432 )     2.12004869
  WF centre and spread   26  ( -2.125609, -5.329298,  1.227242 )     2.14900146
  WF centre and spread   27  ( -8.028787, -8.386713,  2.169278 )     2.34577959
  WF centre and spread   28  ( -8.023694, -8.391027,  2.171114 )     2.38131684
  WF centre and spread   29  ( -8.008403, -8.415994,  2.216818 )     2.25573875
  WF centre and spread   30  ( -7.999773, -8.422568,  2.222891 )     2.27613633
  WF centre and spread   31  ( -8.036302, -8.492265,  2.182890 )     2.12004818
  WF centre and spread   32  ( -8.034192, -8.509006,  2.184080 )     2.14900157
  WF centre and spread   33  ( -5.908583, -5.407716,  1.016263 )     2.21108475
  WF centre and spread   34  ( -5.908583, -5.400117,  1.029346 )     2.22319060
  WF centre and spread   35  ( -5.908583, -5.466403,  0.933482 )     2.38712181
  WF centre and spread   36  ( -5.908583, -5.463195,  0.936194 )     2.43017678
  WF centre and spread   37  ( -5.908583, -5.346040,  0.954451 )     2.12027367
  WF centre and spread   38  ( -5.908583, -5.329313,  0.956823 )     2.14930868
  WF centre and spread   39  ( -5.908583, -8.430588, -1.016263 )     2.21108475
  WF centre and spread   40  ( -5.908583, -8.438188, -1.029346 )     2.22319060
  WF centre and spread   41  ( -5.908583, -8.371902, -0.933482 )     2.38712181
  WF centre and spread   42  ( -5.908583, -8.375109, -0.936194 )     2.43017678
  WF centre and spread   43  ( -5.908583, -8.492264, -0.954451 )     2.12027367
  WF centre and spread   44  ( -5.908583, -8.508992, -0.956823 )     2.14930868
  WF centre and spread   45  ( -3.788379, -5.451591, -2.169278 )     2.34577980
  WF centre and spread   46  ( -3.793472, -5.447277, -2.171114 )     2.38131705
  WF centre and spread   47  ( -3.808763, -5.422311, -2.216818 )     2.25573896
  WF centre and spread   48  ( -3.817393, -5.415737, -2.222891 )     2.27613654
  WF centre and spread   49  ( -3.780864, -5.346040, -2.182890 )     2.12004839
  WF centre and spread   50  ( -3.782974, -5.329298, -2.184080 )     2.14900178
  WF centre and spread   51  ( -9.696962, -8.386714, -1.242044 )     2.34577932
  WF centre and spread   52  ( -9.702055, -8.391027, -1.240208 )     2.38131671
  WF centre and spread   53  ( -9.717346, -8.415994, -1.194504 )     2.25573850
  WF centre and spread   54  ( -9.725976, -8.422568, -1.188431 )     2.27613622
  WF centre and spread   55  ( -9.689447, -8.492264, -1.228432 )     2.12004831
  WF centre and spread   56  ( -9.691557, -8.509007, -1.227242 )     2.14900108
  Sum of centres and spreads (**********,**********,  0.000000 )   101.64138337
 
      2    -0.530E+00     1.4514225121      101.6413925588       0.49  <-- CONV
        O_D=      0.0087878 O_OD=      4.0962129 O_TOT=    101.6413926 <-- SPRD
 Delta: O_D= -0.1885566E-02 O_OD= -0.5280726E+00 O_TOT= -0.5299582E+00 <-- DLTA
 ------------------------------------------------------------------------------
 Cycle:      3
  WF centre and spread    1  ( -3.934256, -6.919152,  0.000000 )     0.82578700
  WF centre and spread    2  ( -3.928076, -6.919152, -0.000000 )     1.25750918
  WF centre and spread    3  ( -3.944218, -6.919152, -0.000000 )     0.84484756
  WF centre and spread    4  ( -3.947422, -6.919152,  0.000000 )     1.27033768
  WF centre and spread    5  ( -3.934486, -6.919152, -0.000000 )     0.87128559
  WF centre and spread    6  ( -3.931089, -6.919152,  0.000000 )     1.16195618
  WF centre and spread    7  ( -3.938632, -6.919152, -0.000000 )     0.78637089
  WF centre and spread    8  ( -3.941619, -6.919152,  0.000000 )     1.23054424
  WF centre and spread    9  ( -3.943660, -6.919152,  0.000000 )     0.87136031
  WF centre and spread   10  ( -3.947067, -6.919152, -0.000000 )     1.16255413
  WF centre and spread   11  ( -7.882910, -6.919152, -0.000000 )     0.82578681
  WF centre and spread   12  ( -7.889091, -6.919152,  0.000000 )     1.25750898
  WF centre and spread   13  ( -7.872948, -6.919152,  0.000000 )     0.84484737
  WF centre and spread   14  ( -7.869744, -6.919152, -0.000000 )     1.27033749
  WF centre and spread   15  ( -7.882680, -6.919152,  0.000000 )     0.87128540
  WF centre and spread   16  ( -7.886077, -6.919152, -0.000000 )     1.16195598
  WF centre and spread   17  ( -7.878534, -6.919152,  0.000000 )     0.78637069
  WF centre and spread   18  ( -7.875547, -6.919152, -0.000000 )     1.23054404
  WF centre and spread   19  ( -7.873506, -6.919152, -0.000000 )     0.87136012
  WF centre and spread   20  ( -7.870099, -6.919152,  0.000000 )     1.16255393
  WF centre and spread   21  ( -2.119448, -5.450218,  1.241365 )     2.33021437
  WF centre and spread   22  ( -2.114618, -5.446429,  1.239558 )     2.36379169
  WF centre and spread   23  ( -2.099152, -5.421045,  1.194347 )     2.24300941
  WF centre and spread   24  ( -2.090719, -5.415049,  1.188508 )     2.26377284
  WF centre and spread   25  ( -2.126779, -5.345056,  1.227899 )     2.10906518
  WF centre and spread   26  ( -2.124910, -5.328954,  1.226848 )     2.13855034
  WF centre and spread   27  ( -8.028031, -8.388087,  2.169957 )     2.33021427
  WF centre and spread   28  ( -8.023201, -8.391875,  2.171764 )     2.36379141
  WF centre and spread   29  ( -8.007735, -8.417259,  2.216975 )     2.24300926
  WF centre and spread   30  ( -7.999303, -8.423255,  2.222814 )     2.26377257
  WF centre and spread   31  ( -8.035362, -8.493249,  2.183423 )     2.10906467
  WF centre and spread   32  ( -8.033493, -8.509350,  2.184473 )     2.13855046
  WF centre and spread   33  ( -5.908583, -5.406511,  1.016760 )     2.19882639
  WF centre and spread   34  ( -5.908583, -5.399517,  1.029520 )     2.21251550
  WF centre and spread   35  ( -5.908583, -5.464968,  0.934657 )     2.37139107
  WF centre and spread   36  ( -5.908583, -5.462264,  0.937145 )     2.41147077
  WF centre and spread   37  ( -5.908583, -5.345054,  0.955544 )     2.10925701
  WF centre and spread   38  ( -5.908583, -5.328964,  0.957635 )     2.13882311
  WF centre and spread   39  ( -5.908583, -8.431794, -1.016760 )     2.19882639
  WF centre and spread   40  ( -5.908583, -8.438788, -1.029520 )     2.21251550
  WF centre and spread   41  ( -5.908583, -8.373336, -0.934657 )     2.37139107
  WF centre and spread   42  ( -5.908583, -8.376040, -0.937145 )     2.41147077
  WF centre and spread   43  ( -5.908583, -8.493251, -0.955544 )     2.10925701
  WF centre and spread   44  ( -5.908583, -8.509341, -0.957635 )     2.13882310
  WF centre and spread   45  ( -3.789135, -5.450218, -2.169957 )     2.33021448
  WF centre and spread   46  ( -3.793965, -5.446429, -2.171764 )     2.36379162
  WF centre and spread   47  ( -3.809431, -5.421045, -2.216975 )     2.24300947
  WF centre and spread   48  ( -3.817864, -5.415049, -2.222814 )     2.26377278
  WF centre and spread   49  ( -3.781804, -5.345056, -2.183423 )     2.10906489
  WF centre and spread   50  ( -3.783673, -5.328954, -2.184473 )     2.13855067
  WF centre and spread   51  ( -9.697718, -8.388087, -1.241365 )     2.33021399
  WF centre and spread   52  ( -9.702548, -8.391875, -1.239558 )     2.36379131
  WF centre and spread   53  ( -9.718014, -8.417259, -1.194347 )     2.24300903
  WF centre and spread   54  ( -9.726447, -8.423256, -1.188508 )     2.26377246
  WF centre and spread   55  ( -9.690387, -8.493248, -1.227899 )     2.10906480
  WF centre and spread   56  ( -9.692256, -8.509351, -1.226848 )     2.13854996
  Sum of centres and spreads (**********,**********,  0.000000 )   101.24328318
 
      3    -0.398E+00     1.4895726176      101.2432923690       0.73  <-- CONV
        O_D=      0.0115746 O_OD=      3.6953259 O_TOT=    101.2432924 <-- SPRD
 Delta: O_D=  0.2786807E-02 O_OD= -0.4008870E+00 O_TOT= -0.3981002E+00 <-- DLTA
 ------------------------------------------------------------------------------
 Cycle:      4
  WF centre and spread    1  ( -3.934261, -6.919152,  0.000000 )     0.82732010
  WF centre and spread    2  ( -3.927835, -6.919152, -0.000000 )     1.26507446
  WF centre and spread    3  ( -3.944182, -6.919152, -0.000000 )     0.84784411
  WF centre and spread    4  ( -3.947640, -6.919152,  0.000000 )     1.27922689
  WF centre and spread    5  ( -3.934411, -6.919152, -0.000000 )     0.87637205
  WF centre and spread    6  ( -3.930894, -6.919152,  0.000000 )     1.17225375
  WF centre and spread    7  ( -3.938651, -6.919152, -0.000000 )     0.78542638
  WF centre and spread    8  ( -3.941629, -6.919152,  0.000000 )     1.23579269
  WF centre and spread    9  ( -3.943743, -6.919152,  0.000000 )     0.87681972
  WF centre and spread   10  ( -3.947271, -6.919152, -0.000000 )     1.17332320
  WF centre and spread   11  ( -7.882905, -6.919152, -0.000000 )     0.82731991
  WF centre and spread   12  ( -7.889331, -6.919152,  0.000000 )     1.26507426
  WF centre and spread   13  ( -7.872984, -6.919152,  0.000000 )     0.84784391
  WF centre and spread   14  ( -7.869526, -6.919152, -0.000000 )     1.27922670
  WF centre and spread   15  ( -7.882755, -6.919152,  0.000000 )     0.87637185
  WF centre and spread   16  ( -7.886272, -6.919152, -0.000000 )     1.17225355
  WF centre and spread   17  ( -7.878515, -6.919152,  0.000000 )     0.78542618
  WF centre and spread   18  ( -7.875537, -6.919152, -0.000000 )     1.23579249
  WF centre and spread   19  ( -7.873423, -6.919152, -0.000000 )     0.87681953
  WF centre and spread   20  ( -7.869895, -6.919152,  0.000000 )     1.17332301
  WF centre and spread   21  ( -2.118896, -5.449279,  1.240860 )     2.31782300
  WF centre and spread   22  ( -2.114267, -5.445836,  1.239068 )     2.34905922
  WF centre and spread   23  ( -2.098707, -5.420201,  1.194286 )     2.23306396
  WF centre and spread   24  ( -2.090411, -5.414553,  1.188625 )     2.25281795
  WF centre and spread   25  ( -2.126083, -5.344542,  1.227497 )     2.10058358
  WF centre and spread   26  ( -2.124358, -5.328872,  1.226529 )     2.12923465
  WF centre and spread   27  ( -8.027480, -8.389025,  2.170462 )     2.31782290
  WF centre and spread   28  ( -8.022850, -8.392468,  2.172255 )     2.34905892
  WF centre and spread   29  ( -8.007290, -8.418104,  2.217036 )     2.23306381
  WF centre and spread   30  ( -7.998995, -8.423751,  2.222697 )     2.25281770
  WF centre and spread   31  ( -8.034666, -8.493762,  2.183825 )     2.10058307
  WF centre and spread   32  ( -8.032941, -8.509432,  2.184793 )     2.12923477
  WF centre and spread   33  ( -5.908583, -5.405721,  1.017014 )     2.18915574
  WF centre and spread   34  ( -5.908583, -5.399077,  1.029545 )     2.20252257
  WF centre and spread   35  ( -5.908583, -5.463968,  0.935549 )     2.35882312
  WF centre and spread   36  ( -5.908583, -5.461609,  0.937866 )     2.39584832
  WF centre and spread   37  ( -5.908583, -5.344536,  0.956357 )     2.10073235
  WF centre and spread   38  ( -5.908583, -5.328875,  0.958283 )     2.12944874
  WF centre and spread   39  ( -5.908583, -8.432584, -1.017014 )     2.18915574
  WF centre and spread   40  ( -5.908583, -8.439227, -1.029545 )     2.20252257
  WF centre and spread   41  ( -5.908583, -8.374337, -0.935549 )     2.35882312
  WF centre and spread   42  ( -5.908583, -8.376696, -0.937866 )     2.39584832
  WF centre and spread   43  ( -5.908583, -8.493769, -0.956357 )     2.10073235
  WF centre and spread   44  ( -5.908583, -8.509429, -0.958283 )     2.12944874
  WF centre and spread   45  ( -3.789686, -5.449280, -2.170462 )     2.31782311
  WF centre and spread   46  ( -3.794316, -5.445836, -2.172255 )     2.34905913
  WF centre and spread   47  ( -3.809876, -5.420201, -2.217036 )     2.23306402
  WF centre and spread   48  ( -3.818172, -5.414553, -2.222697 )     2.25281791
  WF centre and spread   49  ( -3.782500, -5.344542, -2.183825 )     2.10058328
  WF centre and spread   50  ( -3.784225, -5.328872, -2.184793 )     2.12923499
  WF centre and spread   51  ( -9.698270, -8.389025, -1.240860 )     2.31782262
  WF centre and spread   52  ( -9.702899, -8.392468, -1.239068 )     2.34905884
  WF centre and spread   53  ( -9.718459, -8.418103, -1.194286 )     2.23306358
  WF centre and spread   54  ( -9.726755, -8.423751, -1.188625 )     2.25281757
  WF centre and spread   55  ( -9.691083, -8.493762, -1.227497 )     2.10058320
  WF centre and spread   56  ( -9.692808, -8.509433, -1.226529 )     2.12923427
  Sum of centres and spreads (**********,**********,  0.000000 )   100.96229245
 
      4    -0.281E+00     1.3140712415      100.9623016419       0.97  <-- CONV
        O_D=      0.0085861 O_OD=      3.4173236 O_TOT=    100.9623016 <-- SPRD
 Delta: O_D= -0.2988419E-02 O_OD= -0.2780023E+00 O_TOT= -0.2809907E+00 <-- DLTA
 ------------------------------------------------------------------------------
 Cycle:      5
  WF centre and spread    1  ( -3.934264, -6.919152,  0.000000 )     0.83063622
  WF centre and spread    2  ( -3.927660, -6.919152, -0.000000 )     1.27272332
  WF centre and spread    3  ( -3.944130, -6.919152, -0.000000 )     0.85207781
  WF centre and spread    4  ( -3.947777, -6.919152,  0.000000 )     1.28771707
  WF centre and spread    5  ( -3.934317, -6.919152, -0.000000 )     0.88195249
  WF centre and spread    6  ( -3.930695, -6.919152,  0.000000 )     1.18228556
  WF centre and spread    7  ( -3.938692, -6.919152, -0.000000 )     0.78662448
  WF centre and spread    8  ( -3.941663, -6.919152,  0.000000 )     1.24132441
  WF centre and spread    9  ( -3.943833, -6.919152,  0.000000 )     0.88264220
  WF centre and spread   10  ( -3.947466, -6.919152, -0.000000 )     1.18364416
  WF centre and spread   11  ( -7.882902, -6.919152, -0.000000 )     0.83063602
  WF centre and spread   12  ( -7.889506, -6.919152,  0.000000 )     1.27272312
  WF centre and spread   13  ( -7.873036, -6.919152,  0.000000 )     0.85207761
  WF centre and spread   14  ( -7.869389, -6.919152, -0.000000 )     1.28771688
  WF centre and spread   15  ( -7.882849, -6.919152,  0.000000 )     0.88195229
  WF centre and spread   16  ( -7.886471, -6.919152, -0.000000 )     1.18228536
  WF centre and spread   17  ( -7.878474, -6.919152,  0.000000 )     0.78662428
  WF centre and spread   18  ( -7.875503, -6.919152, -0.000000 )     1.24132421
  WF centre and spread   19  ( -7.873333, -6.919152, -0.000000 )     0.88264200
  WF centre and spread   20  ( -7.869700, -6.919152,  0.000000 )     1.18364397
  WF centre and spread   21  ( -2.118560, -5.448687,  1.240536 )     2.30808813
  WF centre and spread   22  ( -2.114117, -5.445456,  1.238771 )     2.33702343
  WF centre and spread   23  ( -2.098512, -5.419684,  1.194297 )     2.22525981
  WF centre and spread   24  ( -2.090357, -5.414220,  1.188788 )     2.24332807
  WF centre and spread   25  ( -2.125634, -5.344351,  1.227235 )     2.09395889
  WF centre and spread   26  ( -2.123996, -5.328938,  1.226316 )     2.12113258
  WF centre and spread   27  ( -8.027143, -8.389617,  2.170786 )     2.30808803
  WF centre and spread   28  ( -8.022700, -8.392849,  2.172551 )     2.33702315
  WF centre and spread   29  ( -8.007095, -8.418620,  2.217025 )     2.22525966
  WF centre and spread   30  ( -7.998940, -8.424084,  2.222534 )     2.24332782
  WF centre and spread   31  ( -8.034217, -8.493954,  2.184087 )     2.09395837
  WF centre and spread   32  ( -8.032579, -8.509367,  2.185006 )     2.12113270
  WF centre and spread   33  ( -5.908583, -5.405249,  1.017019 )     2.18155874
  WF centre and spread   34  ( -5.908583, -5.398776,  1.029333 )     2.19359866
  WF centre and spread   35  ( -5.908583, -5.463321,  0.936149 )     2.34887973
  WF centre and spread   36  ( -5.908583, -5.461188,  0.938293 )     2.38325327
  WF centre and spread   37  ( -5.908583, -5.344342,  0.956876 )     2.09411061
  WF centre and spread   38  ( -5.908583, -5.328937,  0.958703 )     2.12133534
  WF centre and spread   39  ( -5.908583, -8.433055, -1.017019 )     2.18155874
  WF centre and spread   40  ( -5.908583, -8.439528, -1.029333 )     2.19359866
  WF centre and spread   41  ( -5.908583, -8.374983, -0.936149 )     2.34887973
  WF centre and spread   42  ( -5.908583, -8.377116, -0.938293 )     2.38325327
  WF centre and spread   43  ( -5.908583, -8.493962, -0.956876 )     2.09411061
  WF centre and spread   44  ( -5.908583, -8.509367, -0.958703 )     2.12133534
  WF centre and spread   45  ( -3.790023, -5.448687, -2.170786 )     2.30808824
  WF centre and spread   46  ( -3.794466, -5.445456, -2.172551 )     2.33702336
  WF centre and spread   47  ( -3.810071, -5.419684, -2.217025 )     2.22525987
  WF centre and spread   48  ( -3.818226, -5.414220, -2.222534 )     2.24332803
  WF centre and spread   49  ( -3.782949, -5.344351, -2.184087 )     2.09395858
  WF centre and spread   50  ( -3.784587, -5.328938, -2.185006 )     2.12113292
  WF centre and spread   51  ( -9.698606, -8.389618, -1.240536 )     2.30808775
  WF centre and spread   52  ( -9.703049, -8.392849, -1.238771 )     2.33702305
  WF centre and spread   53  ( -9.718654, -8.418620, -1.194297 )     2.22525943
  WF centre and spread   54  ( -9.726809, -8.424084, -1.188788 )     2.24332769
  WF centre and spread   55  ( -9.691532, -8.493953, -1.227235 )     2.09395851
  WF centre and spread   56  ( -9.693170, -8.509367, -1.226316 )     2.12113220
  Sum of centres and spreads (**********,**********,  0.000000 )   100.76388647
 
      5    -0.198E+00     1.1273258462      100.7638956544       1.21  <-- CONV
        O_D=      0.0051865 O_OD=      3.2223172 O_TOT=    100.7638957 <-- SPRD
 Delta: O_D= -0.3399618E-02 O_OD= -0.1950064E+00 O_TOT= -0.1984060E+00 <-- DLTA
 ------------------------------------------------------------------------------
 Cycle:      6
  WF centre and spread    1  ( -3.934271, -6.919152,  0.000000 )     0.83429461
  WF centre and spread    2  ( -3.927546, -6.919152, -0.000000 )     1.27977941
  WF centre and spread    3  ( -3.944080, -6.919152, -0.000000 )     0.85635203
  WF centre and spread    4  ( -3.947863, -6.919152,  0.000000 )     1.29560908
  WF centre and spread    5  ( -3.934227, -6.919152, -0.000000 )     0.88715052
  WF centre and spread    6  ( -3.930523, -6.919152,  0.000000 )     1.19110269
  WF centre and spread    7  ( -3.938733, -6.919152, -0.000000 )     0.78871446
  WF centre and spread    8  ( -3.941691, -6.919152,  0.000000 )     1.24634722
  WF centre and spread    9  ( -3.943917, -6.919152,  0.000000 )     0.88795593
  WF centre and spread   10  ( -3.947630, -6.919152, -0.000000 )     1.19257771
  WF centre and spread   11  ( -7.882895, -6.919152, -0.000000 )     0.83429442
  WF centre and spread   12  ( -7.889620, -6.919152,  0.000000 )     1.27977921
  WF centre and spread   13  ( -7.873086, -6.919152,  0.000000 )     0.85635184
  WF centre and spread   14  ( -7.869303, -6.919152, -0.000000 )     1.29560889
  WF centre and spread   15  ( -7.882940, -6.919152,  0.000000 )     0.88715033
  WF centre and spread   16  ( -7.886643, -6.919152, -0.000000 )     1.19110249
  WF centre and spread   17  ( -7.878433, -6.919152,  0.000000 )     0.78871426
  WF centre and spread   18  ( -7.875475, -6.919152, -0.000000 )     1.24634703
  WF centre and spread   19  ( -7.873249, -6.919152, -0.000000 )     0.88795574
  WF centre and spread   20  ( -7.869536, -6.919152,  0.000000 )     1.19257752
  WF centre and spread   21  ( -2.118395, -5.448344,  1.240359 )     2.30061602
  WF centre and spread   22  ( -2.114096, -5.445230,  1.238611 )     2.32731549
  WF centre and spread   23  ( -2.098466, -5.419401,  1.194336 )     2.21973772
  WF centre and spread   24  ( -2.090389, -5.414020,  1.188929 )     2.23612031
  WF centre and spread   25  ( -2.125380, -5.344352,  1.227086 )     2.08885952
  WF centre and spread   26  ( -2.123791, -5.329067,  1.226195 )     2.11442748
  WF centre and spread   27  ( -8.026978, -8.389960,  2.170963 )     2.30061592
  WF centre and spread   28  ( -8.022679, -8.393075,  2.172711 )     2.32731522
  WF centre and spread   29  ( -8.007048, -8.418903,  2.216986 )     2.21973757
  WF centre and spread   30  ( -7.998972, -8.424284,  2.222393 )     2.23612006
  WF centre and spread   31  ( -8.033963, -8.493953,  2.184236 )     2.08885900
  WF centre and spread   32  ( -8.032374, -8.509237,  2.185127 )     2.11442761
  WF centre and spread   33  ( -5.908583, -5.405002,  1.016927 )     2.17658787
  WF centre and spread   34  ( -5.908583, -5.398597,  1.029118 )     2.18727403
  WF centre and spread   35  ( -5.908583, -5.462935,  0.936485 )     2.34084712
  WF centre and spread   36  ( -5.908583, -5.460937,  0.938485 )     2.37272674
  WF centre and spread   37  ( -5.908583, -5.344342,  0.957169 )     2.08900808
  WF centre and spread   38  ( -5.908583, -5.329066,  0.958937 )     2.11460921
  WF centre and spread   39  ( -5.908583, -8.433302, -1.016927 )     2.17658786
  WF centre and spread   40  ( -5.908583, -8.439708, -1.029118 )     2.18727403
  WF centre and spread   41  ( -5.908583, -8.375369, -0.936485 )     2.34084712
  WF centre and spread   42  ( -5.908583, -8.377368, -0.938485 )     2.37272674
  WF centre and spread   43  ( -5.908583, -8.493962, -0.957169 )     2.08900808
  WF centre and spread   44  ( -5.908583, -8.509239, -0.958937 )     2.11460921
  WF centre and spread   45  ( -3.790188, -5.448344, -2.170963 )     2.30061613
  WF centre and spread   46  ( -3.794487, -5.445230, -2.172711 )     2.32731543
  WF centre and spread   47  ( -3.810118, -5.419401, -2.216986 )     2.21973778
  WF centre and spread   48  ( -3.818194, -5.414020, -2.222393 )     2.23612027
  WF centre and spread   49  ( -3.783203, -5.344352, -2.184236 )     2.08885921
  WF centre and spread   50  ( -3.784792, -5.329068, -2.185127 )     2.11442782
  WF centre and spread   51  ( -9.698771, -8.389961, -1.240359 )     2.30061564
  WF centre and spread   52  ( -9.703070, -8.393075, -1.238611 )     2.32731511
  WF centre and spread   53  ( -9.718701, -8.418903, -1.194336 )     2.21973734
  WF centre and spread   54  ( -9.726777, -8.424284, -1.188929 )     2.23611993
  WF centre and spread   55  ( -9.691786, -8.493952, -1.227086 )     2.08885914
  WF centre and spread   56  ( -9.693375, -8.509237, -1.226195 )     2.11442710
  Sum of centres and spreads (**********,**********,  0.000000 )   100.63017430
 
      6    -0.134E+00     0.9325070644      100.6301834916       1.45  <-- CONV
        O_D=      0.0054067 O_OD=      3.0883849 O_TOT=    100.6301835 <-- SPRD
 Delta: O_D=  0.2201352E-03 O_OD= -0.1339323E+00 O_TOT= -0.1337122E+00 <-- DLTA
 ------------------------------------------------------------------------------
 Cycle:      7
  WF centre and spread    1  ( -3.934277, -6.919152,  0.000000 )     0.83406498
  WF centre and spread    2  ( -3.927544, -6.919152, -0.000000 )     1.27937440
  WF centre and spread    3  ( -3.944074, -6.919152, -0.000000 )     0.85608692
  WF centre and spread    4  ( -3.947871, -6.919152,  0.000000 )     1.29516231
  WF centre and spread    5  ( -3.934223, -6.919152, -0.000000 )     0.88685442
  WF centre and spread    6  ( -3.930514, -6.919152,  0.000000 )     1.19044864
  WF centre and spread    7  ( -3.938734, -6.919152, -0.000000 )     0.78862907
  WF centre and spread    8  ( -3.941686, -6.919152,  0.000000 )     1.24609824
  WF centre and spread    9  ( -3.943920, -6.919152,  0.000000 )     0.88765273
  WF centre and spread   10  ( -3.947639, -6.919152, -0.000000 )     1.19191114
  WF centre and spread   11  ( -7.882889, -6.919152, -0.000000 )     0.83406478
  WF centre and spread   12  ( -7.889623, -6.919152,  0.000000 )     1.27937420
  WF centre and spread   13  ( -7.873092, -6.919152,  0.000000 )     0.85608672
  WF centre and spread   14  ( -7.869295, -6.919152, -0.000000 )     1.29516211
  WF centre and spread   15  ( -7.882943, -6.919152,  0.000000 )     0.88685422
  WF centre and spread   16  ( -7.886652, -6.919152, -0.000000 )     1.19044844
  WF centre and spread   17  ( -7.878432, -6.919152,  0.000000 )     0.78862887
  WF centre and spread   18  ( -7.875480, -6.919152, -0.000000 )     1.24609804
  WF centre and spread   19  ( -7.873246, -6.919152, -0.000000 )     0.88765253
  WF centre and spread   20  ( -7.869527, -6.919152,  0.000000 )     1.19191094
  WF centre and spread   21  ( -2.118401, -5.448308,  1.240359 )     2.29928503
  WF centre and spread   22  ( -2.114120, -5.445191,  1.238610 )     2.32523692
  WF centre and spread   23  ( -2.098467, -5.419373,  1.194340 )     2.21879333
  WF centre and spread   24  ( -2.090389, -5.413989,  1.188942 )     2.23453886
  WF centre and spread   25  ( -2.125373, -5.344355,  1.227082 )     2.08815076
  WF centre and spread   26  ( -2.123792, -5.329066,  1.226195 )     2.11329176
  WF centre and spread   27  ( -8.026984, -8.389996,  2.170963 )     2.29928493
  WF centre and spread   28  ( -8.022703, -8.393113,  2.172712 )     2.32523665
  WF centre and spread   29  ( -8.007050, -8.418931,  2.216982 )     2.21879319
  WF centre and spread   30  ( -7.998972, -8.424315,  2.222380 )     2.23453860
  WF centre and spread   31  ( -8.033956, -8.493950,  2.184240 )     2.08815024
  WF centre and spread   32  ( -8.032375, -8.509238,  2.185127 )     2.11329189
  WF centre and spread   33  ( -5.908583, -5.404978,  1.016922 )     2.17597241
  WF centre and spread   34  ( -5.908583, -5.398571,  1.029115 )     2.18607567
  WF centre and spread   35  ( -5.908583, -5.462895,  0.936482 )     2.33918429
  WF centre and spread   36  ( -5.908583, -5.460893,  0.938459 )     2.37026226
  WF centre and spread   37  ( -5.908583, -5.344345,  0.957178 )     2.08828654
  WF centre and spread   38  ( -5.908583, -5.329065,  0.958936 )     2.11345765
  WF centre and spread   39  ( -5.908583, -8.433326, -1.016922 )     2.17597241
  WF centre and spread   40  ( -5.908583, -8.439734, -1.029115 )     2.18607567
  WF centre and spread   41  ( -5.908583, -8.375410, -0.936482 )     2.33918429
  WF centre and spread   42  ( -5.908583, -8.377411, -0.938459 )     2.37026226
  WF centre and spread   43  ( -5.908583, -8.493959, -0.957178 )     2.08828654
  WF centre and spread   44  ( -5.908583, -8.509240, -0.958936 )     2.11345765
  WF centre and spread   45  ( -3.790182, -5.448309, -2.170963 )     2.29928514
  WF centre and spread   46  ( -3.794463, -5.445191, -2.172712 )     2.32523686
  WF centre and spread   47  ( -3.810116, -5.419373, -2.216982 )     2.21879340
  WF centre and spread   48  ( -3.818194, -5.413989, -2.222380 )     2.23453881
  WF centre and spread   49  ( -3.783210, -5.344355, -2.184240 )     2.08815045
  WF centre and spread   50  ( -3.784791, -5.329066, -2.185127 )     2.11329211
  WF centre and spread   51  ( -9.698765, -8.389996, -1.240359 )     2.29928466
  WF centre and spread   52  ( -9.703046, -8.393113, -1.238610 )     2.32523654
  WF centre and spread   53  ( -9.718699, -8.418931, -1.194340 )     2.21879295
  WF centre and spread   54  ( -9.726777, -8.424315, -1.188942 )     2.23453848
  WF centre and spread   55  ( -9.691793, -8.493949, -1.227082 )     2.08815038
  WF centre and spread   56  ( -9.693374, -8.509239, -1.226195 )     2.11329138
  Sum of centres and spreads (**********,**********,  0.000000 )   100.57622466
 
      7    -0.539E-01     0.7687516301      100.5762338522       1.69  <-- CONV
        O_D=      0.0042505 O_OD=      3.0355914 O_TOT=    100.5762339 <-- SPRD
 Delta: O_D= -0.1156126E-02 O_OD= -0.5279351E-01 O_TOT= -0.5394964E-01 <-- DLTA
 ------------------------------------------------------------------------------
 Cycle:      8
  WF centre and spread    1  ( -3.934292, -6.919152,  0.000000 )     0.83419096
  WF centre and spread    2  ( -3.927546, -6.919152, -0.000000 )     1.28018113
  WF centre and spread    3  ( -3.944058, -6.919152, -0.000000 )     0.85621276
  WF centre and spread    4  ( -3.947880, -6.919152,  0.000000 )     1.29603081
  WF centre and spread    5  ( -3.934214, -6.919152, -0.000000 )     0.88710294
  WF centre and spread    6  ( -3.930487, -6.919152,  0.000000 )     1.19153443
  WF centre and spread    7  ( -3.938737, -6.919152, -0.000000 )     0.78882184
  WF centre and spread    8  ( -3.941675, -6.919152,  0.000000 )     1.24688961
  WF centre and spread    9  ( -3.943927, -6.919152,  0.000000 )     0.88786755
  WF centre and spread   10  ( -3.947663, -6.919152, -0.000000 )     1.19295777
  WF centre and spread   11  ( -7.882874, -6.919152, -0.000000 )     0.83419077
  WF centre and spread   12  ( -7.889620, -6.919152,  0.000000 )     1.28018093
  WF centre and spread   13  ( -7.873108, -6.919152,  0.000000 )     0.85621257
  WF centre and spread   14  ( -7.869286, -6.919152, -0.000000 )     1.29603061
  WF centre and spread   15  ( -7.882952, -6.919152,  0.000000 )     0.88710275
  WF centre and spread   16  ( -7.886679, -6.919152, -0.000000 )     1.19153423
  WF centre and spread   17  ( -7.878429, -6.919152,  0.000000 )     0.78882165
  WF centre and spread   18  ( -7.875491, -6.919152, -0.000000 )     1.24688942
  WF centre and spread   19  ( -7.873239, -6.919152, -0.000000 )     0.88786735
  WF centre and spread   20  ( -7.869503, -6.919152,  0.000000 )     1.19295758
  WF centre and spread   21  ( -2.118410, -5.448240,  1.240356 )     2.29759247
  WF centre and spread   22  ( -2.114166, -5.445129,  1.238608 )     2.32311840
  WF centre and spread   23  ( -2.098472, -5.419320,  1.194350 )     2.21775775
  WF centre and spread   24  ( -2.090388, -5.413940,  1.188970 )     2.23316962
  WF centre and spread   25  ( -2.125351, -5.344377,  1.227067 )     2.08689931
  WF centre and spread   26  ( -2.123789, -5.329085,  1.226192 )     2.11155978
  WF centre and spread   27  ( -8.026993, -8.390064,  2.170966 )     2.29759237
  WF centre and spread   28  ( -8.022749, -8.393176,  2.172714 )     2.32311814
  WF centre and spread   29  ( -8.007054, -8.418985,  2.216972 )     2.21775760
  WF centre and spread   30  ( -7.998971, -8.424365,  2.222352 )     2.23316935
  WF centre and spread   31  ( -8.033934, -8.493928,  2.184255 )     2.08689879
  WF centre and spread   32  ( -8.032372, -8.509219,  2.185130 )     2.11155991
  WF centre and spread   33  ( -5.908583, -5.404935,  1.016905 )     2.17559050
  WF centre and spread   34  ( -5.908583, -5.398532,  1.029106 )     2.18539017
  WF centre and spread   35  ( -5.908583, -5.462817,  0.936483 )     2.33681240
  WF centre and spread   36  ( -5.908583, -5.460821,  0.938412 )     2.36741831
  WF centre and spread   37  ( -5.908583, -5.344368,  0.957203 )     2.08702255
  WF centre and spread   38  ( -5.908583, -5.329086,  0.958938 )     2.11170717
  WF centre and spread   39  ( -5.908583, -8.433369, -1.016905 )     2.17559050
  WF centre and spread   40  ( -5.908583, -8.439773, -1.029106 )     2.18539017
  WF centre and spread   41  ( -5.908583, -8.375487, -0.936483 )     2.33681240
  WF centre and spread   42  ( -5.908583, -8.377483, -0.938412 )     2.36741831
  WF centre and spread   43  ( -5.908583, -8.493936, -0.957203 )     2.08702255
  WF centre and spread   44  ( -5.908583, -8.509218, -0.958938 )     2.11170717
  WF centre and spread   45  ( -3.790173, -5.448241, -2.170966 )     2.29759259
  WF centre and spread   46  ( -3.794417, -5.445129, -2.172714 )     2.32311835
  WF centre and spread   47  ( -3.810112, -5.419320, -2.216972 )     2.21775781
  WF centre and spread   48  ( -3.818195, -5.413940, -2.222352 )     2.23316956
  WF centre and spread   49  ( -3.783232, -5.344377, -2.184255 )     2.08689900
  WF centre and spread   50  ( -3.784794, -5.329085, -2.185130 )     2.11156013
  WF centre and spread   51  ( -9.698756, -8.390064, -1.240356 )     2.29759210
  WF centre and spread   52  ( -9.703000, -8.393175, -1.238608 )     2.32311802
  WF centre and spread   53  ( -9.718695, -8.418984, -1.194350 )     2.21775737
  WF centre and spread   54  ( -9.726778, -8.424365, -1.188970 )     2.23316924
  WF centre and spread   55  ( -9.691815, -8.493927, -1.227067 )     2.08689893
  WF centre and spread   56  ( -9.693377, -8.509219, -1.226192 )     2.11155940
  Sum of centres and spreads (**********,**********,  0.000000 )   100.53184585
 
      8    -0.444E-01     0.5162759276      100.5318550408       1.93  <-- CONV
        O_D=      0.0042433 O_OD=      2.9912198 O_TOT=    100.5318550 <-- SPRD
 Delta: O_D= -0.7261485E-05 O_OD= -0.4437155E-01 O_TOT= -0.4437881E-01 <-- DLTA
 ------------------------------------------------------------------------------
 Cycle:      9
  WF centre and spread    1  ( -3.934311, -6.919152,  0.000000 )     0.83494289
  WF centre and spread    2  ( -3.927548, -6.919152, -0.000000 )     1.28184101
  WF centre and spread    3  ( -3.944035, -6.919152, -0.000000 )     0.85704846
  WF centre and spread    4  ( -3.947890, -6.919152,  0.000000 )     1.29787482
  WF centre and spread    5  ( -3.934200, -6.919152, -0.000000 )     0.88802421
  WF centre and spread    6  ( -3.930454, -6.919152,  0.000000 )     1.19324668
  WF centre and spread    7  ( -3.938741, -6.919152, -0.000000 )     0.78937106
  WF centre and spread    8  ( -3.941664, -6.919152,  0.000000 )     1.24819882
  WF centre and spread    9  ( -3.943937, -6.919152,  0.000000 )     0.88874570
  WF centre and spread   10  ( -3.947692, -6.919152, -0.000000 )     1.19462404
  WF centre and spread   11  ( -7.882855, -6.919152, -0.000000 )     0.83494269
  WF centre and spread   12  ( -7.889618, -6.919152,  0.000000 )     1.28184081
  WF centre and spread   13  ( -7.873131, -6.919152,  0.000000 )     0.85704826
  WF centre and spread   14  ( -7.869276, -6.919152, -0.000000 )     1.29787463
  WF centre and spread   15  ( -7.882966, -6.919152,  0.000000 )     0.88802401
  WF centre and spread   16  ( -7.886712, -6.919152, -0.000000 )     1.19324648
  WF centre and spread   17  ( -7.878425, -6.919152,  0.000000 )     0.78937087
  WF centre and spread   18  ( -7.875502, -6.919152, -0.000000 )     1.24819862
  WF centre and spread   19  ( -7.873229, -6.919152, -0.000000 )     0.88874550
  WF centre and spread   20  ( -7.869474, -6.919152,  0.000000 )     1.19462384
  WF centre and spread   21  ( -2.118409, -5.448173,  1.240339 )     2.29597406
  WF centre and spread   22  ( -2.114207, -5.445072,  1.238599 )     2.32104751
  WF centre and spread   23  ( -2.098472, -5.419268,  1.194366 )     2.21679832
  WF centre and spread   24  ( -2.090389, -5.413894,  1.189001 )     2.23179515
  WF centre and spread   25  ( -2.125313, -5.344423,  1.227044 )     2.08556238
  WF centre and spread   26  ( -2.123771, -5.329136,  1.226179 )     2.10972533
  WF centre and spread   27  ( -8.026992, -8.390131,  2.170983 )     2.29597396
  WF centre and spread   28  ( -8.022790, -8.393233,  2.172723 )     2.32104726
  WF centre and spread   29  ( -8.007055, -8.419037,  2.216956 )     2.21679817
  WF centre and spread   30  ( -7.998972, -8.424411,  2.222321 )     2.23179488
  WF centre and spread   31  ( -8.033896, -8.493882,  2.184278 )     2.08556186
  WF centre and spread   32  ( -8.032354, -8.509168,  2.185143 )     2.10972547
  WF centre and spread   33  ( -5.908583, -5.404895,  1.016880 )     2.17533873
  WF centre and spread   34  ( -5.908583, -5.398498,  1.029087 )     2.18473092
  WF centre and spread   35  ( -5.908583, -5.462739,  0.936505 )     2.33447889
  WF centre and spread   36  ( -5.908583, -5.460754,  0.938377 )     2.36461087
  WF centre and spread   37  ( -5.908583, -5.344416,  0.957245 )     2.08568326
  WF centre and spread   38  ( -5.908583, -5.329140,  0.958957 )     2.10986506
  WF centre and spread   39  ( -5.908583, -8.433410, -1.016880 )     2.17533873
  WF centre and spread   40  ( -5.908583, -8.439807, -1.029087 )     2.18473092
  WF centre and spread   41  ( -5.908583, -8.375565, -0.936505 )     2.33447889
  WF centre and spread   42  ( -5.908583, -8.377550, -0.938377 )     2.36461087
  WF centre and spread   43  ( -5.908583, -8.493889, -0.957245 )     2.08568326
  WF centre and spread   44  ( -5.908583, -8.509165, -0.958957 )     2.10986506
  WF centre and spread   45  ( -3.790174, -5.448174, -2.170983 )     2.29597417
  WF centre and spread   46  ( -3.794376, -5.445071, -2.172723 )     2.32104747
  WF centre and spread   47  ( -3.810111, -5.419268, -2.216956 )     2.21679838
  WF centre and spread   48  ( -3.818194, -5.413894, -2.222321 )     2.23179508
  WF centre and spread   49  ( -3.783270, -5.344423, -2.184278 )     2.08556207
  WF centre and spread   50  ( -3.784812, -5.329136, -2.185143 )     2.10972568
  WF centre and spread   51  ( -9.698757, -8.390131, -1.240339 )     2.29597368
  WF centre and spread   52  ( -9.702959, -8.393233, -1.238599 )     2.32104713
  WF centre and spread   53  ( -9.718694, -8.419037, -1.194366 )     2.21679794
  WF centre and spread   54  ( -9.726777, -8.424411, -1.189001 )     2.23179477
  WF centre and spread   55  ( -9.691853, -8.493882, -1.227044 )     2.08556200
  WF centre and spread   56  ( -9.693395, -8.509168, -1.226179 )     2.10972495
  Sum of centres and spreads (**********,**********,  0.000000 )   100.50085653
 
      9    -0.310E-01     0.4456805664      100.5008657155       2.17  <-- CONV
        O_D=      0.0044298 O_OD=      2.9600440 O_TOT=    100.5008657 <-- SPRD
 Delta: O_D=  0.1865319E-03 O_OD= -0.3117586E-01 O_TOT= -0.3098933E-01 <-- DLTA
 ------------------------------------------------------------------------------
 Cycle:     10
  WF centre and spread    1  ( -3.934331, -6.919152,  0.000000 )     0.83608113
  WF centre and spread    2  ( -3.927548, -6.919152, -0.000000 )     1.28390382
  WF centre and spread    3  ( -3.944011, -6.919152, -0.000000 )     0.85836252
  WF centre and spread    4  ( -3.947898, -6.919152,  0.000000 )     1.30019679
  WF centre and spread    5  ( -3.934184, -6.919152, -0.000000 )     0.88947639
  WF centre and spread    6  ( -3.930419, -6.919152,  0.000000 )     1.19550145
  WF centre and spread    7  ( -3.938747, -6.919152, -0.000000 )     0.79014367
  WF centre and spread    8  ( -3.941657, -6.919152,  0.000000 )     1.24976032
  WF centre and spread    9  ( -3.943949, -6.919152,  0.000000 )     0.89018069
  WF centre and spread   10  ( -3.947723, -6.919152, -0.000000 )     1.19685379
  WF centre and spread   11  ( -7.882835, -6.919152, -0.000000 )     0.83608093
  WF centre and spread   12  ( -7.889618, -6.919152,  0.000000 )     1.28390362
  WF centre and spread   13  ( -7.873155, -6.919152,  0.000000 )     0.85836232
  WF centre and spread   14  ( -7.869268, -6.919152, -0.000000 )     1.30019660
  WF centre and spread   15  ( -7.882982, -6.919152,  0.000000 )     0.88947619
  WF centre and spread   16  ( -7.886747, -6.919152, -0.000000 )     1.19550125
  WF centre and spread   17  ( -7.878419, -6.919152,  0.000000 )     0.79014347
  WF centre and spread   18  ( -7.875509, -6.919152, -0.000000 )     1.24976012
  WF centre and spread   19  ( -7.873217, -6.919152, -0.000000 )     0.89018049
  WF centre and spread   20  ( -7.869443, -6.919152,  0.000000 )     1.19685359
  WF centre and spread   21  ( -2.118398, -5.448110,  1.240310 )     2.29439392
  WF centre and spread   22  ( -2.114230, -5.445016,  1.238579 )     2.31901422
  WF centre and spread   23  ( -2.098464, -5.419217,  1.194382 )     2.21579806
  WF centre and spread   24  ( -2.090382, -5.413849,  1.189027 )     2.23038432
  WF centre and spread   25  ( -2.125263, -5.344486,  1.227014 )     2.08427710
  WF centre and spread   26  ( -2.123736, -5.329212,  1.226157 )     2.10798185
  WF centre and spread   27  ( -8.026981, -8.390194,  2.171012 )     2.29439381
  WF centre and spread   28  ( -8.022813, -8.393289,  2.172743 )     2.31901398
  WF centre and spread   29  ( -8.007047, -8.419087,  2.216940 )     2.21579791
  WF centre and spread   30  ( -7.998965, -8.424456,  2.222295 )     2.23038404
  WF centre and spread   31  ( -8.033846, -8.493819,  2.184308 )     2.08427658
  WF centre and spread   32  ( -8.032319, -8.509093,  2.185165 )     2.10798198
  WF centre and spread   33  ( -5.908583, -5.404857,  1.016861 )     2.17496906
  WF centre and spread   34  ( -5.908583, -5.398465,  1.029073 )     2.18396564
  WF centre and spread   35  ( -5.908583, -5.462665,  0.936546 )     2.33229561
  WF centre and spread   36  ( -5.908583, -5.460690,  0.938369 )     2.36194599
  WF centre and spread   37  ( -5.908583, -5.344480,  0.957302 )     2.08439239
  WF centre and spread   38  ( -5.908583, -5.329217,  0.958995 )     2.10811016
  WF centre and spread   39  ( -5.908583, -8.433448, -1.016861 )     2.17496906
  WF centre and spread   40  ( -5.908583, -8.439839, -1.029073 )     2.18396564
  WF centre and spread   41  ( -5.908583, -8.375639, -0.936546 )     2.33229561
  WF centre and spread   42  ( -5.908583, -8.377615, -0.938369 )     2.36194599
  WF centre and spread   43  ( -5.908583, -8.493825, -0.957302 )     2.08439239
  WF centre and spread   44  ( -5.908583, -8.509087, -0.958995 )     2.10811016
  WF centre and spread   45  ( -3.790185, -5.448110, -2.171012 )     2.29439403
  WF centre and spread   46  ( -3.794353, -5.445016, -2.172743 )     2.31901419
  WF centre and spread   47  ( -3.810119, -5.419217, -2.216940 )     2.21579812
  WF centre and spread   48  ( -3.818201, -5.413849, -2.222295 )     2.23038425
  WF centre and spread   49  ( -3.783320, -5.344486, -2.184308 )     2.08427680
  WF centre and spread   50  ( -3.784847, -5.329212, -2.185165 )     2.10798219
  WF centre and spread   51  ( -9.698769, -8.390194, -1.240310 )     2.29439354
  WF centre and spread   52  ( -9.702936, -8.393288, -1.238579 )     2.31901385
  WF centre and spread   53  ( -9.718702, -8.419087, -1.194382 )     2.21579768
  WF centre and spread   54  ( -9.726784, -8.424456, -1.189027 )     2.23038394
  WF centre and spread   55  ( -9.691903, -8.493818, -1.227014 )     2.08427672
  WF centre and spread   56  ( -9.693430, -8.509093, -1.226157 )     2.10798147
  Sum of centres and spreads (**********,**********,  0.000000 )   100.47967142
 
     10    -0.212E-01     0.3680488237      100.4796806097       2.41  <-- CONV
        O_D=      0.0040642 O_OD=      2.9392244 O_TOT=    100.4796806 <-- SPRD
 Delta: O_D= -0.3655616E-03 O_OD= -0.2081954E-01 O_TOT= -0.2118511E-01 <-- DLTA
 ------------------------------------------------------------------------------
 Cycle:     11
  WF centre and spread    1  ( -3.934347, -6.919152,  0.000000 )     0.83728131
  WF centre and spread    2  ( -3.927542, -6.919152, -0.000000 )     1.28584531
  WF centre and spread    3  ( -3.943989, -6.919152, -0.000000 )     0.85977909
  WF centre and spread    4  ( -3.947905, -6.919152,  0.000000 )     1.30238785
  WF centre and spread    5  ( -3.934168, -6.919152, -0.000000 )     0.89116029
  WF centre and spread    6  ( -3.930387, -6.919152,  0.000000 )     1.19783066
  WF centre and spread    7  ( -3.938754, -6.919152, -0.000000 )     0.79095897
  WF centre and spread    8  ( -3.941655, -6.919152,  0.000000 )     1.25125814
  WF centre and spread    9  ( -3.943963, -6.919152,  0.000000 )     0.89187663
  WF centre and spread   10  ( -3.947755, -6.919152, -0.000000 )     1.19918820
  WF centre and spread   11  ( -7.882819, -6.919152, -0.000000 )     0.83728111
  WF centre and spread   12  ( -7.889624, -6.919152,  0.000000 )     1.28584511
  WF centre and spread   13  ( -7.873177, -6.919152,  0.000000 )     0.85977889
  WF centre and spread   14  ( -7.869261, -6.919152, -0.000000 )     1.30238765
  WF centre and spread   15  ( -7.882998, -6.919152,  0.000000 )     0.89116010
  WF centre and spread   16  ( -7.886779, -6.919152, -0.000000 )     1.19783046
  WF centre and spread   17  ( -7.878412, -6.919152,  0.000000 )     0.79095877
  WF centre and spread   18  ( -7.875511, -6.919152, -0.000000 )     1.25125794
  WF centre and spread   19  ( -7.873203, -6.919152, -0.000000 )     0.89187644
  WF centre and spread   20  ( -7.869411, -6.919152,  0.000000 )     1.19918800
  WF centre and spread   21  ( -2.118381, -5.448054,  1.240276 )     2.29301646
  WF centre and spread   22  ( -2.114236, -5.444967,  1.238554 )     2.31727882
  WF centre and spread   23  ( -2.098451, -5.419171,  1.194398 )     2.21486037
  WF centre and spread   24  ( -2.090369, -5.413807,  1.189046 )     2.22911620
  WF centre and spread   25  ( -2.125212, -5.344553,  1.226984 )     2.08316512
  WF centre and spread   26  ( -2.123696, -5.329295,  1.226132 )     2.10648380
  WF centre and spread   27  ( -8.026964, -8.390250,  2.171046 )     2.29301635
  WF centre and spread   28  ( -8.022819, -8.393337,  2.172768 )     2.31727858
  WF centre and spread   29  ( -8.007034, -8.419133,  2.216924 )     2.21486022
  WF centre and spread   30  ( -7.998953, -8.424497,  2.222276 )     2.22911592
  WF centre and spread   31  ( -8.033795, -8.493751,  2.184338 )     2.08316460
  WF centre and spread   32  ( -8.032279, -8.509009,  2.185190 )     2.10648394
  WF centre and spread   33  ( -5.908583, -5.404822,  1.016848 )     2.17446896
  WF centre and spread   34  ( -5.908583, -5.398435,  1.029066 )     2.18315052
  WF centre and spread   35  ( -5.908583, -5.462600,  0.936597 )     2.33050423
  WF centre and spread   36  ( -5.908583, -5.460633,  0.938386 )     2.35977158
  WF centre and spread   37  ( -5.908583, -5.344547,  0.957360 )     2.08327074
  WF centre and spread   38  ( -5.908583, -5.329301,  0.959041 )     2.10659655
  WF centre and spread   39  ( -5.908583, -8.433483, -1.016848 )     2.17446896
  WF centre and spread   40  ( -5.908583, -8.439869, -1.029066 )     2.18315052
  WF centre and spread   41  ( -5.908583, -8.375704, -0.936597 )     2.33050423
  WF centre and spread   42  ( -5.908583, -8.377671, -0.938386 )     2.35977158
  WF centre and spread   43  ( -5.908583, -8.493757, -0.957360 )     2.08327074
  WF centre and spread   44  ( -5.908583, -8.509003, -0.959041 )     2.10659655
  WF centre and spread   45  ( -3.790202, -5.448054, -2.171046 )     2.29301656
  WF centre and spread   46  ( -3.794347, -5.444967, -2.172768 )     2.31727879
  WF centre and spread   47  ( -3.810132, -5.419171, -2.216924 )     2.21486043
  WF centre and spread   48  ( -3.818214, -5.413807, -2.222276 )     2.22911613
  WF centre and spread   49  ( -3.783371, -5.344553, -2.184338 )     2.08316482
  WF centre and spread   50  ( -3.784887, -5.329295, -2.185190 )     2.10648415
  WF centre and spread   51  ( -9.698785, -8.390250, -1.240276 )     2.29301608
  WF centre and spread   52  ( -9.702930, -8.393337, -1.238554 )     2.31727844
  WF centre and spread   53  ( -9.718715, -8.419133, -1.194398 )     2.21485999
  WF centre and spread   54  ( -9.726797, -8.424497, -1.189046 )     2.22911582
  WF centre and spread   55  ( -9.691954, -8.493751, -1.226984 )     2.08316474
  WF centre and spread   56  ( -9.693470, -8.509010, -1.226132 )     2.10648342
  Sum of centres and spreads (**********,**********,  0.000000 )   100.46633584
 
     11    -0.133E-01     0.2890682080      100.4663450236       2.65  <-- CONV
        O_D=      0.0040086 O_OD=      2.9259445 O_TOT=    100.4663450 <-- SPRD
 Delta: O_D= -0.5566771E-04 O_OD= -0.1327992E-01 O_TOT= -0.1333559E-01 <-- DLTA
 ------------------------------------------------------------------------------
 Cycle:     12
  WF centre and spread    1  ( -3.934357, -6.919152,  0.000000 )     0.83842961
  WF centre and spread    2  ( -3.927529, -6.919152, -0.000000 )     1.28754375
  WF centre and spread    3  ( -3.943972, -6.919152, -0.000000 )     0.86112477
  WF centre and spread    4  ( -3.947918, -6.919152,  0.000000 )     1.30430271
  WF centre and spread    5  ( -3.934153, -6.919152, -0.000000 )     0.89289366
  WF centre and spread    6  ( -3.930358, -6.919152,  0.000000 )     1.20012683
  WF centre and spread    7  ( -3.938762, -6.919152, -0.000000 )     0.79174096
  WF centre and spread    8  ( -3.941656, -6.919152,  0.000000 )     1.25254078
  WF centre and spread    9  ( -3.943977, -6.919152,  0.000000 )     0.89362171
  WF centre and spread   10  ( -3.947782, -6.919152, -0.000000 )     1.20149281
  WF centre and spread   11  ( -7.882809, -6.919152, -0.000000 )     0.83842941
  WF centre and spread   12  ( -7.889637, -6.919152,  0.000000 )     1.28754355
  WF centre and spread   13  ( -7.873194, -6.919152,  0.000000 )     0.86112457
  WF centre and spread   14  ( -7.869248, -6.919152, -0.000000 )     1.30430251
  WF centre and spread   15  ( -7.883013, -6.919152,  0.000000 )     0.89289347
  WF centre and spread   16  ( -7.886808, -6.919152, -0.000000 )     1.20012663
  WF centre and spread   17  ( -7.878404, -6.919152,  0.000000 )     0.79174076
  WF centre and spread   18  ( -7.875510, -6.919152, -0.000000 )     1.25254058
  WF centre and spread   19  ( -7.873189, -6.919152, -0.000000 )     0.89362152
  WF centre and spread   20  ( -7.869384, -6.919152,  0.000000 )     1.20149261
  WF centre and spread   21  ( -2.118364, -5.448007,  1.240242 )     2.29183625
  WF centre and spread   22  ( -2.114232, -5.444929,  1.238524 )     2.31582604
  WF centre and spread   23  ( -2.098441, -5.419129,  1.194415 )     2.21398915
  WF centre and spread   24  ( -2.090358, -5.413771,  1.189065 )     2.22797362
  WF centre and spread   25  ( -2.125168, -5.344616,  1.226958 )     2.08224371
  WF centre and spread   26  ( -2.123657, -5.329375,  1.226110 )     2.10529448
  WF centre and spread   27  ( -8.026947, -8.390297,  2.171080 )     2.29183614
  WF centre and spread   28  ( -8.022815, -8.393376,  2.172798 )     2.31582581
  WF centre and spread   29  ( -8.007024, -8.419175,  2.216907 )     2.21398900
  WF centre and spread   30  ( -7.998941, -8.424534,  2.222257 )     2.22797334
  WF centre and spread   31  ( -8.033751, -8.493688,  2.184364 )     2.08224320
  WF centre and spread   32  ( -8.032240, -8.508929,  2.185212 )     2.10529461
  WF centre and spread   33  ( -5.908583, -5.404788,  1.016831 )     2.17384976
  WF centre and spread   34  ( -5.908583, -5.398407,  1.029054 )     2.18226274
  WF centre and spread   35  ( -5.908583, -5.462546,  0.936652 )     2.32908100
  WF centre and spread   36  ( -5.908583, -5.460589,  0.938421 )     2.35805609
  WF centre and spread   37  ( -5.908583, -5.344611,  0.957411 )     2.08234138
  WF centre and spread   38  ( -5.908583, -5.329382,  0.959084 )     2.10539426
  WF centre and spread   39  ( -5.908583, -8.433516, -1.016831 )     2.17384976
  WF centre and spread   40  ( -5.908583, -8.439897, -1.029054 )     2.18226274
  WF centre and spread   41  ( -5.908583, -8.375759, -0.936652 )     2.32908100
  WF centre and spread   42  ( -5.908583, -8.377715, -0.938421 )     2.35805609
  WF centre and spread   43  ( -5.908583, -8.493694, -0.957411 )     2.08234138
  WF centre and spread   44  ( -5.908583, -8.508922, -0.959084 )     2.10539426
  WF centre and spread   45  ( -3.790219, -5.448007, -2.171080 )     2.29183635
  WF centre and spread   46  ( -3.794351, -5.444928, -2.172798 )     2.31582602
  WF centre and spread   47  ( -3.810142, -5.419129, -2.216907 )     2.21398921
  WF centre and spread   48  ( -3.818225, -5.413771, -2.222257 )     2.22797355
[...]
  WF centre and spread   15  ( -7.883080, -6.919152,  0.000000 )     0.90215548
  WF centre and spread   16  ( -7.886924, -6.919152, -0.000000 )     1.21119707
  WF centre and spread   17  ( -7.878323, -6.919152,  0.000000 )     0.79526220
  WF centre and spread   18  ( -7.875465, -6.919152, -0.000000 )     1.25700763
  WF centre and spread   19  ( -7.873130, -6.919152, -0.000000 )     0.90294840
  WF centre and spread   20  ( -7.869272, -6.919152,  0.000000 )     1.21242676
  WF centre and spread   21  ( -2.119327, -5.448656,  1.240416 )     2.28826957
  WF centre and spread   22  ( -2.115618, -5.445935,  1.238855 )     2.31176053
  WF centre and spread   23  ( -2.097425, -5.418207,  1.194131 )     2.20708976
  WF centre and spread   24  ( -2.088854, -5.412633,  1.188534 )     2.21976037
  WF centre and spread   25  ( -2.125047, -5.344997,  1.226972 )     2.07994701
  WF centre and spread   26  ( -2.123613, -5.329804,  1.226205 )     2.10187876
  WF centre and spread   27  ( -8.027910, -8.389648,  2.170906 )     2.28826956
  WF centre and spread   28  ( -8.024201, -8.392369,  2.172467 )     2.31176020
  WF centre and spread   29  ( -8.006007, -8.420098,  2.217191 )     2.20708967
  WF centre and spread   30  ( -7.997437, -8.425671,  2.222788 )     2.21976004
  WF centre and spread   31  ( -8.033630, -8.493308,  2.184350 )     2.07994652
  WF centre and spread   32  ( -8.032196, -8.508501,  2.185117 )     2.10187887
  WF centre and spread   33  ( -5.908583, -5.404567,  1.016832 )     2.16937037
  WF centre and spread   34  ( -5.908583, -5.398211,  1.029223 )     2.17775909
  WF centre and spread   35  ( -5.908583, -5.462494,  0.936843 )     2.32330337
  WF centre and spread   36  ( -5.908583, -5.460669,  0.938573 )     2.35080618
  WF centre and spread   37  ( -5.908583, -5.344988,  0.957440 )     2.07978163
  WF centre and spread   38  ( -5.908583, -5.329822,  0.958946 )     2.10150774
  WF centre and spread   39  ( -5.908583, -8.433737, -1.016832 )     2.16937037
  WF centre and spread   40  ( -5.908583, -8.440094, -1.029223 )     2.17775909
  WF centre and spread   41  ( -5.908583, -8.375811, -0.936843 )     2.32330337
  WF centre and spread   42  ( -5.908583, -8.377635, -0.938573 )     2.35080618
  WF centre and spread   43  ( -5.908583, -8.493316, -0.957440 )     2.07978163
  WF centre and spread   44  ( -5.908583, -8.508482, -0.958946 )     2.10150774
  WF centre and spread   45  ( -3.789256, -5.448657, -2.170906 )     2.28826977
  WF centre and spread   46  ( -3.792965, -5.445935, -2.172467 )     2.31176041
  WF centre and spread   47  ( -3.811159, -5.418207, -2.217191 )     2.20708988
  WF centre and spread   48  ( -3.819729, -5.412633, -2.222788 )     2.21976024
  WF centre and spread   49  ( -3.783536, -5.344997, -2.184350 )     2.07994673
  WF centre and spread   50  ( -3.784970, -5.329804, -2.185117 )     2.10187908
  WF centre and spread   51  ( -9.697839, -8.389648, -1.240416 )     2.28826919
  WF centre and spread   52  ( -9.701548, -8.392369, -1.238855 )     2.31176015
  WF centre and spread   53  ( -9.719742, -8.420098, -1.194131 )     2.20708938
  WF centre and spread   54  ( -9.728312, -8.425671, -1.188534 )     2.21975999
  WF centre and spread   55  ( -9.692119, -8.493307, -1.226972 )     2.07994663
  WF centre and spread   56  ( -9.693553, -8.508501, -1.226205 )     2.10187839
  Sum of centres and spreads (**********,**********,  0.000000 )   100.43796711
 
    298    -0.493E-05     0.0054354707      100.4379762955      73.22  <-- CONV
        O_D=      0.0038197 O_OD=      2.8977647 O_TOT=    100.4379763 <-- SPRD
 Delta: O_D= -0.3041257E-07 O_OD= -0.4900286E-05 O_TOT= -0.4930699E-05 <-- DLTA
 ------------------------------------------------------------------------------
 Cycle:    299
  WF centre and spread    1  ( -3.934351, -6.919152,  0.000000 )     0.84402244
  WF centre and spread    2  ( -3.927406, -6.919152, -0.000000 )     1.29497763
  WF centre and spread    3  ( -3.943913, -6.919152, -0.000000 )     0.86688874
  WF centre and spread    4  ( -3.948020, -6.919152,  0.000000 )     1.31216626
  WF centre and spread    5  ( -3.934087, -6.919152, -0.000000 )     0.90215518
  WF centre and spread    6  ( -3.930243, -6.919152,  0.000000 )     1.21119660
  WF centre and spread    7  ( -3.938843, -6.919152, -0.000000 )     0.79526135
  WF centre and spread    8  ( -3.941701, -6.919152,  0.000000 )     1.25700808
  WF centre and spread    9  ( -3.944036, -6.919152,  0.000000 )     0.90294899
  WF centre and spread   10  ( -3.947894, -6.919152, -0.000000 )     1.21242665
  WF centre and spread   11  ( -7.882815, -6.919152, -0.000000 )     0.84402224
  WF centre and spread   12  ( -7.889760, -6.919152,  0.000000 )     1.29497743
  WF centre and spread   13  ( -7.873253, -6.919152,  0.000000 )     0.86688854
  WF centre and spread   14  ( -7.869146, -6.919152, -0.000000 )     1.31216606
  WF centre and spread   15  ( -7.883080, -6.919152,  0.000000 )     0.90215498
  WF centre and spread   16  ( -7.886924, -6.919152, -0.000000 )     1.21119640
  WF centre and spread   17  ( -7.878323, -6.919152,  0.000000 )     0.79526115
  WF centre and spread   18  ( -7.875465, -6.919152, -0.000000 )     1.25700788
  WF centre and spread   19  ( -7.873130, -6.919152, -0.000000 )     0.90294879
  WF centre and spread   20  ( -7.869272, -6.919152,  0.000000 )     1.21242646
  WF centre and spread   21  ( -2.119331, -5.448659,  1.240417 )     2.28827604
  WF centre and spread   22  ( -2.115623, -5.445939,  1.238856 )     2.31176807
  WF centre and spread   23  ( -2.097421, -5.418204,  1.194130 )     2.20707989
  WF centre and spread   24  ( -2.088849, -5.412629,  1.188532 )     2.21974778
  WF centre and spread   25  ( -2.125047, -5.344997,  1.226972 )     2.07995079
  WF centre and spread   26  ( -2.123614, -5.329804,  1.226205 )     2.10188004
  WF centre and spread   27  ( -8.027914, -8.389645,  2.170905 )     2.28827604
  WF centre and spread   28  ( -8.024206, -8.392366,  2.172466 )     2.31176775
  WF centre and spread   29  ( -8.006004, -8.420101,  2.217192 )     2.20707980
  WF centre and spread   30  ( -7.997432, -8.425675,  2.222790 )     2.21974744
  WF centre and spread   31  ( -8.033630, -8.493307,  2.184350 )     2.07995029
  WF centre and spread   32  ( -8.032197, -8.508500,  2.185116 )     2.10188014
  WF centre and spread   33  ( -5.908583, -5.404567,  1.016832 )     2.16936716
  WF centre and spread   34  ( -5.908583, -5.398210,  1.029224 )     2.17775769
  WF centre and spread   35  ( -5.908583, -5.462494,  0.936843 )     2.32330446
  WF centre and spread   36  ( -5.908583, -5.460669,  0.938573 )     2.35080556
  WF centre and spread   37  ( -5.908583, -5.344989,  0.957440 )     2.07978461
  WF centre and spread   38  ( -5.908583, -5.329823,  0.958945 )     2.10150752
  WF centre and spread   39  ( -5.908583, -8.433738, -1.016832 )     2.16936716
  WF centre and spread   40  ( -5.908583, -8.440094, -1.029224 )     2.17775769
  WF centre and spread   41  ( -5.908583, -8.375811, -0.936843 )     2.32330446
  WF centre and spread   42  ( -5.908583, -8.377635, -0.938573 )     2.35080556
  WF centre and spread   43  ( -5.908583, -8.493316, -0.957440 )     2.07978461
  WF centre and spread   44  ( -5.908583, -8.508482, -0.958945 )     2.10150752
  WF centre and spread   45  ( -3.789252, -5.448659, -2.170905 )     2.28827625
  WF centre and spread   46  ( -3.792960, -5.445939, -2.172466 )     2.31176796
  WF centre and spread   47  ( -3.811162, -5.418204, -2.217192 )     2.20708001
  WF centre and spread   48  ( -3.819734, -5.412629, -2.222790 )     2.21974765
  WF centre and spread   49  ( -3.783536, -5.344997, -2.184350 )     2.07995050
  WF centre and spread   50  ( -3.784969, -5.329804, -2.185116 )     2.10188036
  WF centre and spread   51  ( -9.697836, -8.389645, -1.240417 )     2.28827567
  WF centre and spread   52  ( -9.701543, -8.392365, -1.238856 )     2.31176770
  WF centre and spread   53  ( -9.719745, -8.420101, -1.194130 )     2.20707951
  WF centre and spread   54  ( -9.728317, -8.425675, -1.188532 )     2.21974740
  WF centre and spread   55  ( -9.692119, -8.493307, -1.226972 )     2.07995041
  WF centre and spread   56  ( -9.693552, -8.508501, -1.226205 )     2.10187966
  Sum of centres and spreads (**********,**********,  0.000000 )   100.43796302
 
    299    -0.409E-05     0.0048231242      100.4379722065      73.47  <-- CONV
        O_D=      0.0038196 O_OD=      2.8977607 O_TOT=    100.4379722 <-- SPRD
 Delta: O_D= -0.6928848E-07 O_OD= -0.4019739E-05 O_TOT= -0.4089028E-05 <-- DLTA
 ------------------------------------------------------------------------------
 Cycle:    300
  WF centre and spread    1  ( -3.934351, -6.919152,  0.000000 )     0.84402364
  WF centre and spread    2  ( -3.927406, -6.919152, -0.000000 )     1.29498038
  WF centre and spread    3  ( -3.943913, -6.919152, -0.000000 )     0.86688704
  WF centre and spread    4  ( -3.948020, -6.919152,  0.000000 )     1.31216637
  WF centre and spread    5  ( -3.934086, -6.919152, -0.000000 )     0.90215675
  WF centre and spread    6  ( -3.930243, -6.919152,  0.000000 )     1.21119672
  WF centre and spread    7  ( -3.938843, -6.919152, -0.000000 )     0.79525946
  WF centre and spread    8  ( -3.941701, -6.919152,  0.000000 )     1.25700580
  WF centre and spread    9  ( -3.944036, -6.919152,  0.000000 )     0.90295154
  WF centre and spread   10  ( -3.947894, -6.919152, -0.000000 )     1.21242694
  WF centre and spread   11  ( -7.882815, -6.919152, -0.000000 )     0.84402344
  WF centre and spread   12  ( -7.889760, -6.919152,  0.000000 )     1.29498018
  WF centre and spread   13  ( -7.873253, -6.919152,  0.000000 )     0.86688684
  WF centre and spread   14  ( -7.869146, -6.919152, -0.000000 )     1.31216617
  WF centre and spread   15  ( -7.883080, -6.919152,  0.000000 )     0.90215656
  WF centre and spread   16  ( -7.886924, -6.919152, -0.000000 )     1.21119652
  WF centre and spread   17  ( -7.878323, -6.919152,  0.000000 )     0.79525926
  WF centre and spread   18  ( -7.875465, -6.919152, -0.000000 )     1.25700560
  WF centre and spread   19  ( -7.873130, -6.919152, -0.000000 )     0.90295134
  WF centre and spread   20  ( -7.869272, -6.919152,  0.000000 )     1.21242674
  WF centre and spread   21  ( -2.119336, -5.448663,  1.240418 )     2.28828554
  WF centre and spread   22  ( -2.115630, -5.445944,  1.238858 )     2.31178090
  WF centre and spread   23  ( -2.097415, -5.418200,  1.194128 )     2.20706419
  WF centre and spread   24  ( -2.088841, -5.412624,  1.188529 )     2.21972877
  WF centre and spread   25  ( -2.125047, -5.344998,  1.226973 )     2.07995679
  WF centre and spread   26  ( -2.123614, -5.329804,  1.226206 )     2.10188415
  WF centre and spread   27  ( -8.027919, -8.389641,  2.170904 )     2.28828554
  WF centre and spread   28  ( -8.024213, -8.392361,  2.172464 )     2.31178057
  WF centre and spread   29  ( -8.005998, -8.420105,  2.217194 )     2.20706410
  WF centre and spread   30  ( -7.997424, -8.425681,  2.222793 )     2.21972843
  WF centre and spread   31  ( -8.033630, -8.493307,  2.184349 )     2.07995630
  WF centre and spread   32  ( -8.032197, -8.508500,  2.185116 )     2.10188425
  WF centre and spread   33  ( -5.908583, -5.404566,  1.016833 )     2.16935995
  WF centre and spread   34  ( -5.908583, -5.398210,  1.029225 )     2.17775269
  WF centre and spread   35  ( -5.908583, -5.462494,  0.936843 )     2.32330694
  WF centre and spread   36  ( -5.908583, -5.460670,  0.938573 )     2.35080774
  WF centre and spread   37  ( -5.908583, -5.344989,  0.957439 )     2.07978956
  WF centre and spread   38  ( -5.908583, -5.329823,  0.958944 )     2.10150975
  WF centre and spread   39  ( -5.908583, -8.433738, -1.016833 )     2.16935995
  WF centre and spread   40  ( -5.908583, -8.440095, -1.029225 )     2.17775269
  WF centre and spread   41  ( -5.908583, -8.375810, -0.936843 )     2.32330694
  WF centre and spread   42  ( -5.908583, -8.377635, -0.938573 )     2.35080774
  WF centre and spread   43  ( -5.908583, -8.493315, -0.957439 )     2.07978956
  WF centre and spread   44  ( -5.908583, -8.508481, -0.958944 )     2.10150975
  WF centre and spread   45  ( -3.789247, -5.448663, -2.170904 )     2.28828575
  WF centre and spread   46  ( -3.792953, -5.445944, -2.172464 )     2.31178078
  WF centre and spread   47  ( -3.811168, -5.418200, -2.217194 )     2.20706431
  WF centre and spread   48  ( -3.819742, -5.412624, -2.222793 )     2.21972864
  WF centre and spread   49  ( -3.783536, -5.344998, -2.184349 )     2.07995651
  WF centre and spread   50  ( -3.784969, -5.329805, -2.185116 )     2.10188447
  WF centre and spread   51  ( -9.697830, -8.389642, -1.240418 )     2.28828516
  WF centre and spread   52  ( -9.701536, -8.392360, -1.238858 )     2.31178052
  WF centre and spread   53  ( -9.719751, -8.420105, -1.194128 )     2.20706381
  WF centre and spread   54  ( -9.728325, -8.425681, -1.188529 )     2.21972839
  WF centre and spread   55  ( -9.692119, -8.493307, -1.226973 )     2.07995641
  WF centre and spread   56  ( -9.693552, -8.508500, -1.226206 )     2.10188378
  Sum of centres and spreads (**********,**********,  0.000000 )   100.43795859
 
    300    -0.443E-05     0.0045705031      100.4379677801      73.72  <-- CONV
        O_D=      0.0038194 O_OD=      2.8977564 O_TOT=    100.4379678 <-- SPRD
 Delta: O_D= -0.1673802E-06 O_OD= -0.4258984E-05 O_TOT= -0.4426364E-05 <-- DLTA
 ------------------------------------------------------------------------------

 Writing checkpoint file wannier90.chk... done

 Final State
  WF centre and spread    1  ( -3.934351, -6.919152,  0.000000 )     0.84402364
  WF centre and spread    2  ( -3.927406, -6.919152, -0.000000 )     1.29498038
  WF centre and spread    3  ( -3.943913, -6.919152, -0.000000 )     0.86688704
  WF centre and spread    4  ( -3.948020, -6.919152,  0.000000 )     1.31216637
  WF centre and spread    5  ( -3.934086, -6.919152, -0.000000 )     0.90215675
  WF centre and spread    6  ( -3.930243, -6.919152,  0.000000 )     1.21119672
  WF centre and spread    7  ( -3.938843, -6.919152, -0.000000 )     0.79525946
  WF centre and spread    8  ( -3.941701, -6.919152,  0.000000 )     1.25700580
  WF centre and spread    9  ( -3.944036, -6.919152,  0.000000 )     0.90295154
  WF centre and spread   10  ( -3.947894, -6.919152, -0.000000 )     1.21242694
  WF centre and spread   11  ( -7.882815, -6.919152, -0.000000 )     0.84402344
  WF centre and spread   12  ( -7.889760, -6.919152,  0.000000 )     1.29498018
  WF centre and spread   13  ( -7.873253, -6.919152,  0.000000 )     0.86688684
  WF centre and spread   14  ( -7.869146, -6.919152, -0.000000 )     1.31216617
  WF centre and spread   15  ( -7.883080, -6.919152,  0.000000 )     0.90215656
  WF centre and spread   16  ( -7.886924, -6.919152, -0.000000 )     1.21119652
  WF centre and spread   17  ( -7.878323, -6.919152,  0.000000 )     0.79525926
  WF centre and spread   18  ( -7.875465, -6.919152, -0.000000 )     1.25700560
  WF centre and spread   19  ( -7.873130, -6.919152, -0.000000 )     0.90295134
  WF centre and spread   20  ( -7.869272, -6.919152,  0.000000 )     1.21242674
  WF centre and spread   21  ( -2.119336, -5.448663,  1.240418 )     2.28828554
  WF centre and spread   22  ( -2.115630, -5.445944,  1.238858 )     2.31178090
  WF centre and spread   23  ( -2.097415, -5.418200,  1.194128 )     2.20706419
  WF centre and spread   24  ( -2.088841, -5.412624,  1.188529 )     2.21972877
  WF centre and spread   25  ( -2.125047, -5.344998,  1.226973 )     2.07995679
  WF centre and spread   26  ( -2.123614, -5.329804,  1.226206 )     2.10188415
  WF centre and spread   27  ( -8.027919, -8.389641,  2.170904 )     2.28828554
  WF centre and spread   28  ( -8.024213, -8.392361,  2.172464 )     2.31178057
  WF centre and spread   29  ( -8.005998, -8.420105,  2.217194 )     2.20706410
  WF centre and spread   30  ( -7.997424, -8.425681,  2.222793 )     2.21972843
  WF centre and spread   31  ( -8.033630, -8.493307,  2.184349 )     2.07995630
  WF centre and spread   32  ( -8.032197, -8.508500,  2.185116 )     2.10188425
  WF centre and spread   33  ( -5.908583, -5.404566,  1.016833 )     2.16935995
  WF centre and spread   34  ( -5.908583, -5.398210,  1.029225 )     2.17775269
  WF centre and spread   35  ( -5.908583, -5.462494,  0.936843 )     2.32330694
  WF centre and spread   36  ( -5.908583, -5.460670,  0.938573 )     2.35080774
  WF centre and spread   37  ( -5.908583, -5.344989,  0.957439 )     2.07978956
  WF centre and spread   38  ( -5.908583, -5.329823,  0.958944 )     2.10150975
  WF centre and spread   39  ( -5.908583, -8.433738, -1.016833 )     2.16935995
  WF centre and spread   40  ( -5.908583, -8.440095, -1.029225 )     2.17775269
  WF centre and spread   41  ( -5.908583, -8.375810, -0.936843 )     2.32330694
  WF centre and spread   42  ( -5.908583, -8.377635, -0.938573 )     2.35080774
  WF centre and spread   43  ( -5.908583, -8.493315, -0.957439 )     2.07978956
  WF centre and spread   44  ( -5.908583, -8.508481, -0.958944 )     2.10150975
  WF centre and spread   45  ( -3.789247, -5.448663, -2.170904 )     2.28828575
  WF centre and spread   46  ( -3.792953, -5.445944, -2.172464 )     2.31178078
  WF centre and spread   47  ( -3.811168, -5.418200, -2.217194 )     2.20706431
  WF centre and spread   48  ( -3.819742, -5.412624, -2.222793 )     2.21972864
  WF centre and spread   49  ( -3.783536, -5.344998, -2.184349 )     2.07995651
  WF centre and spread   50  ( -3.784969, -5.329805, -2.185116 )     2.10188447
  WF centre and spread   51  ( -9.697830, -8.389642, -1.240418 )     2.28828516
  WF centre and spread   52  ( -9.701536, -8.392360, -1.238858 )     2.31178052
  WF centre and spread   53  ( -9.719751, -8.420105, -1.194128 )     2.20706381
  WF centre and spread   54  ( -9.728325, -8.425681, -1.188529 )     2.21972839
  WF centre and spread   55  ( -9.692119, -8.493307, -1.226973 )     2.07995641
  WF centre and spread   56  ( -9.693552, -8.508500, -1.226206 )     2.10188378
  Sum of centres and spreads (**********,**********,  0.000000 )   100.43795859
 
         Spreads (Ang^2)       Omega I      =    97.536391925
        ================       Omega D      =     0.003819437
                               Omega OD     =     2.897756418
    Final Spread (Ang^2)       Omega Total  =   100.437967780
 ------------------------------------------------------------------------------

 Wannier centres written to file wannier90_centres.xyz
 Time for wannierise           73.803 (sec)

 Writing checkpoint file wannier90.chk... done

 *---------------------------------------------------------------------------*
 |                               PLOTTING                                    |
 *---------------------------------------------------------------------------*
 
 
 Calculating interpolated band-structure
 
 Time to calculate interpolated band structure      33.769 (sec)
 
 Time for plotting             37.194 (sec)
 Total Execution Time         113.235 (sec)

 *===========================================================================*
 |                             TIMING INFORMATION                            |
 *===========================================================================*
 |    Tag                                                Ncalls      Time (s)|
 |---------------------------------------------------------------------------|
 |kmesh: get                                        :         1         0.047|
 |overlap: allocate                                 :         1         0.019|
 |overlap: read                                     :         1         2.131|
 |wann: main                                        :         1        73.802|
 |plot: main                                        :         1        37.194|
 *---------------------------------------------------------------------------*
 
 All done: wannier90 exiting
