 
             +---------------------------------------------------+
             |                                                   |
             |                   WANNIER90                       |
             |                                                   |
             +---------------------------------------------------+
             |                                                   |
             |        Welcome to the Maximally-Localized         |
             |        Generalized Wannier Functions code         |
             |            http://www.wannier.org                 |
             |                                                   |
             |                                                   |
             |  Wannier90 Developer Group:                       |
             |    Giovanni Pizzi    (EPFL)                       |
             |    Valerio Vitale    (Cambridge)                  |
             |    David Vanderbilt  (Rutgers University)         |
             |    Nicola Marzari    (EPFL)                       |
             |    Ivo Souza         (Universidad del Pais Vasco) |
             |    Arash A. Mostofi  (Imperial College London)    |
             |    Jonathan R. Yates (University of Oxford)       |
             |                                                   |
             |  For the full list of Wannier90 3.x authors,      |
             |  please check the code documentation and the      |
             |  README on the GitHub page of the code            |
             |                                                   |
             |                                                   |
             |  Please cite                                      |
             |                                                   |
             |  [ref] "Wannier90 as a community code:            |
             |        new features and applications",            |
             |        G. Pizzi et al., J. Phys. Cond. Matt. 32,  |
             |        165902 (2020).                             |
             |        http://doi.org/10.1088/1361-648X/ab51ff    |
             |                                                   |
             |  in any publications arising from the use of      |
             |  this code. For the method please cite            |
             |                                                   |
             |  [ref] "Maximally Localized Generalised Wannier   |
             |         Functions for Composite Energy Bands"     |
             |         N. Marzari and D. Vanderbilt              |
             |         Phys. Rev. B 56 12847 (1997)              |
             |                                                   |
             |  [ref] "Maximally Localized Wannier Functions     |
             |         for Entangled Energy Bands"               |
             |         I. Souza, N. Marzari and D. Vanderbilt    |
             |         Phys. Rev. B 65 035109 (2001)             |
             |                                                   |
             |                                                   |
             | Copyright (c) 1996-2020                           |
             |        The Wannier90 Developer Group and          |
             |        individual contributors                    |
             |                                                   |
             |      Release: 3.1.0        5th March    2020      |
             |                                                   |
             | This program is free software; you can            |
             | redistribute it and/or modify it under the terms  |
             | of the GNU General Public License as published by |
             | the Free Software Foundation; either version 2 of |
             | the License, or (at your option) any later version|
             |                                                   |
             | This program is distributed in the hope that it   |
             | will be useful, but WITHOUT ANY WARRANTY; without |
             | even the implied warranty of MERCHANTABILITY or   |
             | FITNESS FOR A PARTICULAR PURPOSE. See the GNU     |
             | General Public License for more details.          |
             |                                                   |
             | You should have received a copy of the GNU General|
             | Public License along with this program; if not,   |
             | write to the Free Software Foundation, Inc.,      |
             | 675 Mass Ave, Cambridge, MA 02139, USA.           |
             |                                                   |
             +---------------------------------------------------+
             |    Execution started on 11Nov2021 at 16:18:10     |
             +---------------------------------------------------+
 
 ******************************************************************************
 * -> Using CODATA 2006 constant values                                       *
 *    (http://physics.nist.gov/cuu/Constants/index.html)                      *
 * -> Using Bohr value from CODATA                                            *
 ******************************************************************************
 

 Running in serial (with parallel executable)
 
                                    ------
                                    SYSTEM
                                    ------
 
                              Lattice Vectors (Ang)
                    a_1    -5.908583   3.411322   0.000000
                    a_2    -5.908583  -3.411322   0.000000
                    a_3     0.000000   0.000000  13.838304
 
                   Unit Cell Volume:     557.85192  (Ang^3)
 
                        Reciprocal-Space Vectors (Ang^-1)
                    b_1    -0.531700   0.920931   0.000000
                    b_2    -0.531700  -0.920931   0.000000
                    b_3     0.000000   0.000000   0.454043
  
 *----------------------------------------------------------------------------*
 |   Site       Fractional Coordinate          Cartesian Coordinate (Ang)     |
 +----------------------------------------------------------------------------+
 | Cr   1   0.33333   0.33333   0.50000   |   -3.93906   0.00000   6.91915    |
 | Cr   2   0.66667   0.66667   0.50000   |   -7.87811   0.00000   6.91915    |
 | I    1   0.35393   0.00000   0.38811   |   -2.09120   1.20735   5.37075    |
 | I    2   1.00000   0.35393   0.61189   |   -7.99978   2.20397   8.46756    |
 | I    3   0.64607   0.35393   0.38811   |   -5.90858   0.99661   5.37075    |
 | I    4   0.35393   0.64607   0.61189   |   -5.90858  -0.99661   8.46756    |
 | I    5   0.00000   0.64607   0.38811   |   -3.81738  -2.20397   5.37075    |
 | I    6   0.64607   1.00000   0.61189   |   -9.72597  -1.20735   8.46756    |
 *----------------------------------------------------------------------------*
                                ------------
                                K-POINT GRID
                                ------------
  
             Grid size =  9 x  9 x  1      Total points =   81
  
  
 *---------------------------------- MAIN ------------------------------------*
 |  Number of Wannier Functions               :                56             |
 |  Number of Objective Wannier Functions     :                56             |
 |  Number of input Bloch states              :                56             |
 |  Output verbosity (1=low, 5=high)          :                 1             |
 |  Timing Level (1=low, 5=high)              :                 1             |
 |  Optimisation (0=memory, 3=speed)          :                 3             |
 |  Length Unit                               :               Ang             |
 |  Post-processing setup (write *.nnkp)      :                 F             |
 |  Using Gamma-only branch of algorithms     :                 F             |
 *----------------------------------------------------------------------------*
 *------------------------------- WANNIERISE ---------------------------------*
 |  Total number of iterations                :               300             |
 |  Number of CG steps before reset           :                 5             |
 |  Trial step length for line search         :             2.000             |
 |  Convergence tolerence                     :         0.100E-09             |
 |  Convergence window                        :                -1             |
 |  Iterations between writing output         :                 1             |
 |  Iterations between backing up to disk     :               100             |
 |  Write r^2_nm to file                      :                 F             |
 |  Write xyz WF centres to file              :                 T             |
 |  Write on-site energies <0n|H|0n> to file  :                 F             |
 |  Use guiding centre to control phases      :                 T             |
 |  Use phases for initial projections        :                 F             |
 |  Iterations before starting guiding centres:                 0             |
 |  Iterations between using guiding centres  :                 1             |
 *----------------------------------------------------------------------------*
 *-------------------------------- PLOTTING ----------------------------------*
 |  Plotting interpolated bandstructure       :                 T             |
 |   Number of K-path sections                :                 6             |
 |   Divisions along first K-path section     :               410             |
 |   Output format                            :           gnuplot             |
 |   Output mode                              :               s-k             |
 *----------------------------------------------------------------------------*
 |   K-space path sections:                                                   |
 |    From: X       0.500  0.000  0.000     To: GM      0.000  0.000  0.500   |
 |    From: GM      0.000  0.000  0.500     To: Y       0.000  0.500  0.000   |
 |    From: Y       0.000  0.500  0.000     To: S       0.500  0.500  0.000   |
 |    From: S       0.500  0.500  0.000     To: X       0.500  0.000  0.000   |
 |    From: X       0.500  0.000  0.000     To: R       0.500  0.500  0.500   |
 |    From: R       0.500  0.500  0.500     To: GM      0.000  0.000  0.000   |
 *----------------------------------------------------------------------------*
 |  Plotting Hamiltonian in WF basis          :                 T             |
 *----------------------------------------------------------------------------*
 Time to read parameters        0.015 (sec)

 *---------------------------------- K-MESH ----------------------------------*
 +----------------------------------------------------------------------------+
 |                    Distance to Nearest-Neighbour Shells                    |
 |                    ------------------------------------                    |
 |          Shell             Distance (Ang^-1)          Multiplicity         |
 |          -----             -----------------          ------------         |
 |             1                   0.118156                      6            |
 |             2                   0.204651                      6            |
 |             3                   0.236311                      6            |
 |             4                   0.312610                     12            |
 |             5                   0.354467                      6            |
 |             6                   0.409303                      6            |
 |             7                   0.426016                     12            |
 |             8                   0.454043                      2            |
 |             9                   0.469165                     12            |
 |            10                   0.472622                      6            |
 |            11                   0.498033                     12            |
 |            12                   0.511857                     12            |
 |            13                   0.515028                     12            |
 |            14                   0.541457                     12            |
 |            15                   0.551253                     24            |
 |            16                   0.576022                     12            |
 |            17                   0.590778                      6            |
 |            18                   0.611297                     12            |
 |            19                   0.613954                      6            |
 |            20                   0.622611                     24            |
 |            21                   0.625220                     12            |
 |            22                   0.655383                     12            |
 |            23                   0.657862                     12            |
 |            24                   0.686592                     24            |
 +----------------------------------------------------------------------------+
 | The b-vectors are chosen automatically                                     |
 | SVD found small singular value, Rejecting this shell and trying the next   |
 | SVD found small singular value, Rejecting this shell and trying the next   |
 | SVD found small singular value, Rejecting this shell and trying the next   |
 | SVD found small singular value, Rejecting this shell and trying the next   |
 | The following shells are used:   1,  8                                     |
 +----------------------------------------------------------------------------+
 |                        Shell   # Nearest-Neighbours                        |
 |                        -----   --------------------                        |
 |                          1               6                                 |
 |                          8               2                                 |
 +----------------------------------------------------------------------------+
 | Completeness relation is fully satisfied [Eq. (B1), PRB 56, 12847 (1997)]  |
 +----------------------------------------------------------------------------+
 |                  b_k Vectors (Ang^-1) and Weights (Ang^2)                  |
 |                  ----------------------------------------                  |
 |            No.         b_k(x)      b_k(y)      b_k(z)        w_b           |
 |            ---        --------------------------------     --------        |
 |             1        -0.059078    0.102326    0.000000    23.876503        |
 |             2         0.059078   -0.102326    0.000000    23.876503        |
 |             3         0.118156    0.000000    0.000000    23.876503        |
 |             4        -0.118156    0.000000    0.000000    23.876503        |
 |             5        -0.059078   -0.102326    0.000000    23.876503        |
 |             6         0.059078    0.102326    0.000000    23.876503        |
 |             7         0.000000    0.000000    0.454043     2.425359        |
 |             8         0.000000    0.000000   -0.454043     2.425359        |
 +----------------------------------------------------------------------------+
 |                           b_k Directions (Ang^-1)                          |
 |                           -----------------------                          |
 |            No.           x           y           z                         |
 |            ---        --------------------------------                     |
 |             1        -0.059078    0.102326    0.000000                     |
 |             2         0.118156    0.000000    0.000000                     |
 |             3        -0.059078   -0.102326    0.000000                     |
 |             4         0.000000    0.000000    0.454043                     |
 +----------------------------------------------------------------------------+
  
 Time to get kmesh              0.046 (sec)
 *============================================================================*
 |                              MEMORY ESTIMATE                               |
 |         Maximum RAM allocated during each phase of the calculation         |
 *============================================================================*
 |                            Wannierise:           79.24 Mb                  |
 |                          plot_wannier:           79.24 Mb                  |
 *----------------------------------------------------------------------------*
  
 Starting a new Wannier90 calculation ...


 Reading overlaps from wannier90.mmn    : File generated by VASP: unknown system

 Reading projections from wannier90.amn : File generated by VASP: unknown system

 Time to read overlaps          2.152 (sec)

 Writing checkpoint file wannier90.chk... done

 
 *------------------------------- WANNIERISE ---------------------------------*
 +--------------------------------------------------------------------+<-- CONV
 | Iter  Delta Spread     RMS Gradient      Spread (Ang^2)      Time  |<-- CONV
 +--------------------------------------------------------------------+<-- CONV
 
 ------------------------------------------------------------------------------
 Initial State
  WF centre and spread    1  ( -3.939053,  0.000000,  6.919152 )     0.79772691
  WF centre and spread    2  ( -3.939051,  0.000002,  6.919152 )     1.23021072
  WF centre and spread    3  ( -3.943559, -0.000001,  6.919152 )     0.88786407
  WF centre and spread    4  ( -3.946586, -0.000003,  6.919153 )     1.16072786
  WF centre and spread    5  ( -3.934532, -0.000001,  6.919152 )     0.88733089
  WF centre and spread    6  ( -3.931512, -0.000003,  6.919153 )     1.16033824
  WF centre and spread    7  ( -3.934036, -0.000000,  6.919152 )     0.87265437
  WF centre and spread    8  ( -3.931918, -0.000001,  6.919152 )     1.28767778
  WF centre and spread    9  ( -3.944061, -0.000000,  6.919152 )     0.87275000
  WF centre and spread   10  ( -3.946168, -0.000001,  6.919152 )     1.28786938
  WF centre and spread   11  ( -7.878113, -0.000000,  6.919152 )     0.79772671
  WF centre and spread   12  ( -7.878115, -0.000002,  6.919152 )     1.23021052
  WF centre and spread   13  ( -7.873607,  0.000001,  6.919152 )     0.88786388
  WF centre and spread   14  ( -7.870580,  0.000003,  6.919152 )     1.16072767
  WF centre and spread   15  ( -7.882634,  0.000001,  6.919152 )     0.88733069
  WF centre and spread   16  ( -7.885654,  0.000003,  6.919152 )     1.16033804
  WF centre and spread   17  ( -7.883130,  0.000000,  6.919152 )     0.87265417
  WF centre and spread   18  ( -7.885248,  0.000001,  6.919152 )     1.28767758
  WF centre and spread   19  ( -7.873105,  0.000000,  6.919152 )     0.87274980
  WF centre and spread   20  ( -7.870998,  0.000001,  6.919152 )     1.28786918
  WF centre and spread   21  ( -2.129782,  1.229615,  5.349597 )     2.27399478
  WF centre and spread   22  ( -2.126895,  1.227947,  5.331361 )     2.30446441
  WF centre and spread   23  ( -2.101099,  1.194925,  5.426208 )     2.35852713
  WF centre and spread   24  ( -2.091719,  1.188139,  5.417882 )     2.37257290
  WF centre and spread   25  ( -2.121887,  1.243299,  5.455695 )     2.45436380
  WF centre and spread   26  ( -2.116053,  1.241327,  5.449778 )     2.48978272
  WF centre and spread   27  ( -8.038374,  2.181712,  8.488707 )     2.27399188
  WF centre and spread   28  ( -8.035488,  2.183380,  8.506944 )     2.30442622
  WF centre and spread   29  ( -8.009682,  2.216393,  8.412096 )     2.35858511
  WF centre and spread   30  ( -8.000299,  2.223178,  8.420423 )     2.37262835
  WF centre and spread   31  ( -8.030472,  2.168028,  8.382610 )     2.45427314
  WF centre and spread   32  ( -8.024639,  2.170001,  8.388527 )     2.48967639
  WF centre and spread   33  ( -5.908593,  0.952053,  5.349602 )     2.27393031
  WF centre and spread   34  ( -5.908593,  0.955376,  5.331365 )     2.30440485
  WF centre and spread   35  ( -5.908583,  0.931018,  5.470518 )     2.49745726
  WF centre and spread   36  ( -5.908584,  0.934339,  5.465820 )     2.54299221
  WF centre and spread   37  ( -5.908585,  1.015447,  5.411551 )     2.31235201
  WF centre and spread   38  ( -5.908584,  1.029726,  5.402050 )     2.31511702
  WF centre and spread   39  ( -5.908573, -0.952053,  8.488703 )     2.27393031
  WF centre and spread   40  ( -5.908573, -0.955376,  8.506940 )     2.30440485
  WF centre and spread   41  ( -5.908583, -0.931018,  8.367787 )     2.49745726
  WF centre and spread   42  ( -5.908582, -0.934339,  8.372485 )     2.54299222
  WF centre and spread   43  ( -5.908582, -1.015447,  8.426754 )     2.31235201
  WF centre and spread   44  ( -5.908583, -1.029726,  8.436255 )     2.31511702
  WF centre and spread   45  ( -3.778792, -2.181712,  5.349597 )     2.27399210
  WF centre and spread   46  ( -3.781678, -2.183380,  5.331361 )     2.30442644
  WF centre and spread   47  ( -3.807485, -2.216393,  5.426208 )     2.35858532
  WF centre and spread   48  ( -3.816867, -2.223178,  5.417881 )     2.37262856
  WF centre and spread   49  ( -3.786694, -2.168028,  5.455694 )     2.45427335
  WF centre and spread   50  ( -3.792528, -2.170001,  5.449778 )     2.48967660
  WF centre and spread   51  ( -9.687384, -1.229615,  8.488707 )     2.27399440
  WF centre and spread   52  ( -9.690271, -1.227947,  8.506944 )     2.30446403
  WF centre and spread   53  ( -9.716067, -1.194925,  8.412096 )     2.35852674
  WF centre and spread   54  ( -9.725447, -1.188139,  8.420423 )     2.37257252
  WF centre and spread   55  ( -9.695279, -1.243299,  8.382610 )     2.45436342
  WF centre and spread   56  ( -9.701113, -1.241327,  8.388527 )     2.48978234
  Sum of centres and spreads (**********,  0.000000,387.472526 )   106.39737842
 
      0     0.106E+03     0.0000000000      106.3973876048       0.00  <-- CONV
        O_D=      0.0157937 O_OD=      5.7018323 O_TOT=    106.3973876 <-- SPRD
 ------------------------------------------------------------------------------
 Cycle:      1
  WF centre and spread    1  ( -3.939053,  0.000000,  6.919152 )     0.79259563
  WF centre and spread    2  ( -3.939052,  0.000002,  6.919152 )     1.22518787
  WF centre and spread    3  ( -3.943561, -0.000001,  6.919152 )     0.88031771
  WF centre and spread    4  ( -3.946661, -0.000003,  6.919153 )     1.15287325
  WF centre and spread    5  ( -3.934549, -0.000001,  6.919152 )     0.87990389
  WF centre and spread    6  ( -3.931456, -0.000004,  6.919153 )     1.15259221
  WF centre and spread    7  ( -3.933999, -0.000000,  6.919152 )     0.86338376
  WF centre and spread    8  ( -3.931759, -0.000001,  6.919152 )     1.27475338
  WF centre and spread    9  ( -3.944102,  0.000000,  6.919152 )     0.86345941
  WF centre and spread   10  ( -3.946338, -0.000001,  6.919152 )     1.27485628
  WF centre and spread   11  ( -7.878113, -0.000000,  6.919152 )     0.79259543
  WF centre and spread   12  ( -7.878114, -0.000002,  6.919152 )     1.22518768
  WF centre and spread   13  ( -7.873605,  0.000001,  6.919152 )     0.88031752
  WF centre and spread   14  ( -7.870505,  0.000003,  6.919152 )     1.15287305
  WF centre and spread   15  ( -7.882617,  0.000001,  6.919152 )     0.87990369
  WF centre and spread   16  ( -7.885710,  0.000004,  6.919152 )     1.15259202
  WF centre and spread   17  ( -7.883167,  0.000000,  6.919152 )     0.86338356
  WF centre and spread   18  ( -7.885407,  0.000001,  6.919152 )     1.27475318
  WF centre and spread   19  ( -7.873064, -0.000000,  6.919152 )     0.86345921
  WF centre and spread   20  ( -7.870828,  0.000001,  6.919152 )     1.27485609
  WF centre and spread   21  ( -2.129382,  1.229390,  5.348716 )     2.26804133
  WF centre and spread   22  ( -2.126696,  1.227836,  5.330752 )     2.29754798
  WF centre and spread   23  ( -2.100890,  1.194817,  5.425251 )     2.34863069
  WF centre and spread   24  ( -2.091711,  1.188212,  5.417285 )     2.36266559
  WF centre and spread   25  ( -2.121575,  1.243108,  5.454699 )     2.44260472
  WF centre and spread   26  ( -2.115918,  1.241167,  5.449089 )     2.47647598
  WF centre and spread   27  ( -8.037974,  2.181938,  8.489588 )     2.26803937
  WF centre and spread   28  ( -8.035288,  2.183491,  8.507552 )     2.29751766
  WF centre and spread   29  ( -8.009473,  2.216502,  8.413053 )     2.34868337
  WF centre and spread   30  ( -8.000292,  2.223105,  8.421020 )     2.36272108
  WF centre and spread   31  ( -8.030160,  2.168220,  8.383606 )     2.44252639
  WF centre and spread   32  ( -8.024503,  2.170162,  8.389216 )     2.47638315
  WF centre and spread   33  ( -5.908592,  0.952522,  5.348722 )     2.26796397
  WF centre and spread   34  ( -5.908593,  0.955620,  5.330757 )     2.29746341
  WF centre and spread   35  ( -5.908583,  0.931474,  5.469516 )     2.48472651
  WF centre and spread   36  ( -5.908584,  0.934662,  5.465101 )     2.52799850
  WF centre and spread   37  ( -5.908585,  1.015605,  5.410606 )     2.30328119
  WF centre and spread   38  ( -5.908584,  1.029562,  5.401496 )     2.30687727
  WF centre and spread   39  ( -5.908574, -0.952522,  8.489583 )     2.26796397
  WF centre and spread   40  ( -5.908573, -0.955620,  8.507548 )     2.29746341
  WF centre and spread   41  ( -5.908583, -0.931474,  8.368789 )     2.48472651
  WF centre and spread   42  ( -5.908582, -0.934662,  8.373203 )     2.52799850
  WF centre and spread   43  ( -5.908581, -1.015605,  8.427698 )     2.30328119
  WF centre and spread   44  ( -5.908582, -1.029562,  8.436809 )     2.30687727
  WF centre and spread   45  ( -3.779192, -2.181938,  5.348716 )     2.26803959
  WF centre and spread   46  ( -3.781878, -2.183491,  5.330752 )     2.29751787
  WF centre and spread   47  ( -3.807693, -2.216502,  5.425252 )     2.34868358
  WF centre and spread   48  ( -3.816874, -2.223105,  5.417285 )     2.36272129
  WF centre and spread   49  ( -3.787006, -2.168220,  5.454699 )     2.44252660
  WF centre and spread   50  ( -3.792663, -2.170162,  5.449089 )     2.47638337
  WF centre and spread   51  ( -9.687784, -1.229390,  8.489588 )     2.26804095
  WF centre and spread   52  ( -9.690470, -1.227836,  8.507552 )     2.29754760
  WF centre and spread   53  ( -9.716276, -1.194817,  8.413053 )     2.34863031
  WF centre and spread   54  ( -9.725455, -1.188212,  8.421020 )     2.36266520
  WF centre and spread   55  ( -9.695591, -1.243108,  8.383606 )     2.44260434
  WF centre and spread   56  ( -9.701248, -1.241167,  8.389216 )     2.47647560
  Sum of centres and spreads (**********,  0.000000,387.472526 )   105.88014012
 
      1    -0.517E+00     1.7147392464      105.8801493097       0.26  <-- CONV
        O_D=      0.0100207 O_OD=      5.1903670 O_TOT=    105.8801493 <-- SPRD
 Delta: O_D= -0.5772952E-02 O_OD= -0.5114653E+00 O_TOT= -0.5172383E+00 <-- DLTA
 ------------------------------------------------------------------------------
 Cycle:      2
  WF centre and spread    1  ( -3.939055,  0.000000,  6.919152 )     0.78053846
  WF centre and spread    2  ( -3.939051,  0.000001,  6.919152 )     1.21772888
  WF centre and spread    3  ( -3.943568, -0.000001,  6.919152 )     0.87269977
  WF centre and spread    4  ( -3.946781, -0.000003,  6.919153 )     1.15120669
  WF centre and spread    5  ( -3.934559, -0.000001,  6.919152 )     0.87264664
  WF centre and spread    6  ( -3.931359, -0.000004,  6.919152 )     1.15103722
  WF centre and spread    7  ( -3.933906, -0.000000,  6.919152 )     0.85102606
  WF centre and spread    8  ( -3.931355, -0.000002,  6.919153 )     1.26419408
  WF centre and spread    9  ( -3.944185,  0.000000,  6.919152 )     0.85095504
  WF centre and spread   10  ( -3.946740, -0.000000,  6.919152 )     1.26412547
  WF centre and spread   11  ( -7.878111, -0.000000,  6.919152 )     0.78053826
  WF centre and spread   12  ( -7.878115, -0.000001,  6.919152 )     1.21772868
  WF centre and spread   13  ( -7.873599,  0.000001,  6.919152 )     0.87269957
  WF centre and spread   14  ( -7.870385,  0.000003,  6.919152 )     1.15120649
  WF centre and spread   15  ( -7.882607,  0.000001,  6.919152 )     0.87264644
  WF centre and spread   16  ( -7.885808,  0.000004,  6.919152 )     1.15103702
  WF centre and spread   17  ( -7.883261,  0.000000,  6.919152 )     0.85102586
  WF centre and spread   18  ( -7.885811,  0.000002,  6.919152 )     1.26419388
  WF centre and spread   19  ( -7.872981, -0.000000,  6.919152 )     0.85095484
  WF centre and spread   20  ( -7.870426,  0.000000,  6.919152 )     1.26412527
  WF centre and spread   21  ( -2.128493,  1.228883,  5.347128 )     2.25302353
  WF centre and spread   22  ( -2.126175,  1.227544,  5.329827 )     2.28391192
  WF centre and spread   23  ( -2.100371,  1.194620,  5.423541 )     2.33373970
  WF centre and spread   24  ( -2.091510,  1.188324,  5.416400 )     2.35233513
  WF centre and spread   25  ( -2.120845,  1.242622,  5.452926 )     2.42486248
  WF centre and spread   26  ( -2.115513,  1.240739,  5.448047 )     2.46065857
  WF centre and spread   27  ( -8.037086,  2.182444,  8.491177 )     2.25302348
  WF centre and spread   28  ( -8.034768,  2.183784,  8.508477 )     2.28388345
  WF centre and spread   29  ( -8.008954,  2.216697,  8.414762 )     2.33378361
  WF centre and spread   30  ( -8.000091,  2.222992,  8.421905 )     2.35237690
  WF centre and spread   31  ( -8.029428,  2.168708,  8.385379 )     2.42479159
  WF centre and spread   32  ( -8.024097,  2.170591,  8.390257 )     2.46058039
  WF centre and spread   33  ( -5.908592,  0.953542,  5.347138 )     2.25301626
  WF centre and spread   34  ( -5.908592,  0.956218,  5.329838 )     2.28392306
  WF centre and spread   35  ( -5.908584,  0.932500,  5.467730 )     2.46574136
  WF centre and spread   36  ( -5.908585,  0.935430,  5.464008 )     2.50971582
  WF centre and spread   37  ( -5.908584,  1.015915,  5.408921 )     2.28922077
  WF centre and spread   38  ( -5.908584,  1.029361,  5.400686 )     2.29874348
  WF centre and spread   39  ( -5.908574, -0.953542,  8.491166 )     2.25301626
  WF centre and spread   40  ( -5.908574, -0.956218,  8.508466 )     2.28392305
  WF centre and spread   41  ( -5.908582, -0.932500,  8.370574 )     2.46574136
  WF centre and spread   42  ( -5.908581, -0.935430,  8.374297 )     2.50971582
  WF centre and spread   43  ( -5.908582, -1.015915,  8.429384 )     2.28922077
  WF centre and spread   44  ( -5.908583, -1.029361,  8.437619 )     2.29874348
  WF centre and spread   45  ( -3.780080, -2.182444,  5.347128 )     2.25302370
  WF centre and spread   46  ( -3.782398, -2.183784,  5.329827 )     2.28388366
  WF centre and spread   47  ( -3.808212, -2.216697,  5.423542 )     2.33378382
  WF centre and spread   48  ( -3.817075, -2.222992,  5.416400 )     2.35237711
  WF centre and spread   49  ( -3.787738, -2.168708,  5.452925 )     2.42479180
  WF centre and spread   50  ( -3.793069, -2.170591,  5.448047 )     2.46058060
  WF centre and spread   51  ( -9.688673, -1.228883,  8.491177 )     2.25302316
  WF centre and spread   52  ( -9.690991, -1.227544,  8.508478 )     2.28391154
  WF centre and spread   53  ( -9.716795, -1.194620,  8.414763 )     2.33373932
  WF centre and spread   54  ( -9.725656, -1.188324,  8.421905 )     2.35233475
  WF centre and spread   55  ( -9.696321, -1.242622,  8.385379 )     2.42486210
  WF centre and spread   56  ( -9.701653, -1.240739,  8.390257 )     2.46065819
  Sum of centres and spreads (**********,  0.000000,387.472526 )   105.18697658
 
      2    -0.693E+00     2.0073257778      105.1869857691       0.50  <-- CONV
        O_D=      0.0096013 O_OD=      4.4976229 O_TOT=    105.1869858 <-- SPRD
 Delta: O_D= -0.4194577E-03 O_OD= -0.6927441E+00 O_TOT= -0.6931635E+00 <-- DLTA
 ------------------------------------------------------------------------------
 Cycle:      3
  WF centre and spread    1  ( -3.939054,  0.000000,  6.919152 )     0.77328860
  WF centre and spread    2  ( -3.939047,  0.000001,  6.919152 )     1.21636815
  WF centre and spread    3  ( -3.943592, -0.000001,  6.919152 )     0.87182720
  WF centre and spread    4  ( -3.946889, -0.000003,  6.919153 )     1.15604923
  WF centre and spread    5  ( -3.934542, -0.000002,  6.919152 )     0.87197777
  WF centre and spread    6  ( -3.931266, -0.000004,  6.919152 )     1.15596511
  WF centre and spread    7  ( -3.933850, -0.000000,  6.919152 )     0.84748580
  WF centre and spread    8  ( -3.930983, -0.000001,  6.919153 )     1.26706555
  WF centre and spread    9  ( -3.944227,  0.000000,  6.919152 )     0.84721580
  WF centre and spread   10  ( -3.947103, -0.000001,  6.919152 )     1.26680928
  WF centre and spread   11  ( -7.878112, -0.000000,  6.919152 )     0.77328840
  WF centre and spread   12  ( -7.878119, -0.000001,  6.919152 )     1.21636795
  WF centre and spread   13  ( -7.873574,  0.000001,  6.919152 )     0.87182701
  WF centre and spread   14  ( -7.870277,  0.000003,  6.919152 )     1.15604904
  WF centre and spread   15  ( -7.882624,  0.000002,  6.919152 )     0.87197757
  WF centre and spread   16  ( -7.885900,  0.000004,  6.919152 )     1.15596491
  WF centre and spread   17  ( -7.883316,  0.000000,  6.919152 )     0.84748560
  WF centre and spread   18  ( -7.886183,  0.000001,  6.919152 )     1.26706535
  WF centre and spread   19  ( -7.872939, -0.000000,  6.919152 )     0.84721561
  WF centre and spread   20  ( -7.870063,  0.000001,  6.919152 )     1.26680909
  WF centre and spread   21  ( -2.127656,  1.228408,  5.345982 )     2.24280193
  WF centre and spread   22  ( -2.125604,  1.227225,  5.329292 )     2.27501960
  WF centre and spread   23  ( -2.099808,  1.194460,  5.422245 )     2.32196090
  WF centre and spread   24  ( -2.091165,  1.188400,  5.415737 )     2.34254912
  WF centre and spread   25  ( -2.120153,  1.242056,  5.451558 )     2.41058371
  WF centre and spread   26  ( -2.115081,  1.240212,  5.447245 )     2.44612300
  WF centre and spread   27  ( -8.036249,  2.182919,  8.492323 )     2.24280060
  WF centre and spread   28  ( -8.034197,  2.184103,  8.509012 )     2.27499878
  WF centre and spread   29  ( -8.008391,  2.216856,  8.416059 )     2.32199774
  WF centre and spread   30  ( -7.999746,  2.222915,  8.422568 )     2.34257389
  WF centre and spread   31  ( -8.028736,  2.169273,  8.386747 )     2.41052035
  WF centre and spread   32  ( -8.023665,  2.171117,  8.391060 )     2.44605085
  WF centre and spread   33  ( -5.908592,  0.954501,  5.345995 )     2.24285070
  WF centre and spread   34  ( -5.908592,  0.956869,  5.329307 )     2.27511706
  WF centre and spread   35  ( -5.908584,  0.933526,  5.466329 )     2.45090303
  WF centre and spread   36  ( -5.908584,  0.936240,  5.463143 )     2.49357120
  WF centre and spread   37  ( -5.908584,  1.016292,  5.407663 )     2.27798466
  WF centre and spread   38  ( -5.908583,  1.029382,  5.400098 )     2.29065609
  WF centre and spread   39  ( -5.908574, -0.954501,  8.492309 )     2.24285070
  WF centre and spread   40  ( -5.908574, -0.956869,  8.508997 )     2.27511706
  WF centre and spread   41  ( -5.908583, -0.933526,  8.371975 )     2.45090303
  WF centre and spread   42  ( -5.908582, -0.936240,  8.375161 )     2.49357120
  WF centre and spread   43  ( -5.908582, -1.016292,  8.430641 )     2.27798466
  WF centre and spread   44  ( -5.908583, -1.029382,  8.438206 )     2.29065609
  WF centre and spread   45  ( -3.780917, -2.182919,  5.345982 )     2.24280081
  WF centre and spread   46  ( -3.782969, -2.184103,  5.329292 )     2.27499899
  WF centre and spread   47  ( -3.808775, -2.216856,  5.422246 )     2.32199795
  WF centre and spread   48  ( -3.817421, -2.222915,  5.415737 )     2.34257410
  WF centre and spread   49  ( -3.788430, -2.169273,  5.451558 )     2.41052056
  WF centre and spread   50  ( -3.793501, -2.171117,  5.447245 )     2.44605106
  WF centre and spread   51  ( -9.689510, -1.228408,  8.492323 )     2.24280155
  WF centre and spread   52  ( -9.691562, -1.227225,  8.509012 )     2.27501922
  WF centre and spread   53  ( -9.717358, -1.194460,  8.416060 )     2.32196052
  WF centre and spread   54  ( -9.726001, -1.188400,  8.422568 )     2.34254874
  WF centre and spread   55  ( -9.697013, -1.242056,  8.386746 )     2.41058333
  WF centre and spread   56  ( -9.702085, -1.240212,  8.391059 )     2.44612262
  Sum of centres and spreads (**********,  0.000000,387.472526 )   104.76622845
 
      3    -0.421E+00     1.5449021802      104.7662376392       0.75  <-- CONV
        O_D=      0.0092237 O_OD=      4.0772524 O_TOT=    104.7662376 <-- SPRD
 Delta: O_D= -0.3775962E-03 O_OD= -0.4203705E+00 O_TOT= -0.4207481E+00 <-- DLTA
 ------------------------------------------------------------------------------
 Cycle:      4
  WF centre and spread    1  ( -3.939050,  0.000000,  6.919152 )     0.76735605
  WF centre and spread    2  ( -3.939043,  0.000001,  6.919152 )     1.21896122
  WF centre and spread    3  ( -3.943662, -0.000001,  6.919152 )     0.87595728
  WF centre and spread    4  ( -3.947088, -0.000003,  6.919153 )     1.16774807
  WF centre and spread    5  ( -3.934488, -0.000002,  6.919152 )     0.87594138
  WF centre and spread    6  ( -3.931088, -0.000005,  6.919152 )     1.16743146
  WF centre and spread    7  ( -3.933834, -0.000001,  6.919152 )     0.84789637
  WF centre and spread    8  ( -3.930614, -0.000002,  6.919153 )     1.27640454
  WF centre and spread    9  ( -3.944229,  0.000000,  6.919152 )     0.84766758
  WF centre and spread   10  ( -3.947451, -0.000000,  6.919152 )     1.27621766
  WF centre and spread   11  ( -7.878116, -0.000000,  6.919152 )     0.76735585
  WF centre and spread   12  ( -7.878124, -0.000001,  6.919152 )     1.21896102
  WF centre and spread   13  ( -7.873504,  0.000001,  6.919152 )     0.87595708
  WF centre and spread   14  ( -7.870078,  0.000003,  6.919152 )     1.16774787
  WF centre and spread   15  ( -7.882678,  0.000002,  6.919152 )     0.87594118
  WF centre and spread   16  ( -7.886078,  0.000005,  6.919152 )     1.16743126
  WF centre and spread   17  ( -7.883332,  0.000001,  6.919152 )     0.84789617
  WF centre and spread   18  ( -7.886552,  0.000002,  6.919152 )     1.27640435
  WF centre and spread   19  ( -7.872937, -0.000000,  6.919152 )     0.84766738
  WF centre and spread   20  ( -7.869715,  0.000000,  6.919152 )     1.27621747
  WF centre and spread   21  ( -2.126703,  1.227867,  5.344989 )     2.23138487
  WF centre and spread   22  ( -2.124896,  1.226825,  5.328948 )     2.26448417
  WF centre and spread   23  ( -2.099135,  1.194304,  5.420971 )     2.30851094
  WF centre and spread   24  ( -2.090693,  1.188483,  5.415055 )     2.33007735
  WF centre and spread   25  ( -2.119381,  1.241365,  5.450188 )     2.39407631
  WF centre and spread   26  ( -2.114576,  1.239549,  5.446419 )     2.42833646
  WF centre and spread   27  ( -8.035295,  2.183460,  8.493316 )     2.23137428
  WF centre and spread   28  ( -8.033488,  2.184503,  8.509356 )     2.26443919
  WF centre and spread   29  ( -8.007718,  2.217013,  8.417333 )     2.30856826
  WF centre and spread   30  ( -7.999273,  2.222833,  8.423249 )     2.33013461
  WF centre and spread   31  ( -8.027965,  2.169963,  8.388118 )     2.39401289
  WF centre and spread   32  ( -8.023162,  2.171780,  8.391886 )     2.42826527
  WF centre and spread   33  ( -5.908592,  0.955606,  5.345000 )     2.23139845
  WF centre and spread   34  ( -5.908593,  0.957691,  5.328962 )     2.26454601
  WF centre and spread   35  ( -5.908584,  0.934727,  5.464896 )     2.43429019
  WF centre and spread   36  ( -5.908585,  0.937223,  5.462236 )     2.47466361
  WF centre and spread   37  ( -5.908583,  1.016784,  5.406448 )     2.26490901
  WF centre and spread   38  ( -5.908582,  1.029546,  5.399504 )     2.27974093
  WF centre and spread   39  ( -5.908574, -0.955606,  8.493305 )     2.23139845
  WF centre and spread   40  ( -5.908574, -0.957691,  8.509343 )     2.26454601
  WF centre and spread   41  ( -5.908582, -0.934727,  8.373408 )     2.43429019
  WF centre and spread   42  ( -5.908581, -0.937223,  8.376068 )     2.47466361
  WF centre and spread   43  ( -5.908583, -1.016784,  8.431856 )     2.26490901
  WF centre and spread   44  ( -5.908584, -1.029546,  8.438801 )     2.27974093
  WF centre and spread   45  ( -3.781871, -2.183460,  5.344989 )     2.23137450
  WF centre and spread   46  ( -3.783678, -2.184503,  5.328949 )     2.26443940
  WF centre and spread   47  ( -3.809449, -2.217013,  5.420972 )     2.30856847
  WF centre and spread   48  ( -3.817893, -2.222833,  5.415055 )     2.33013482
  WF centre and spread   49  ( -3.789201, -2.169963,  5.450187 )     2.39401310
  WF centre and spread   50  ( -3.794004, -2.171780,  5.446418 )     2.42826549
  WF centre and spread   51  ( -9.690463, -1.227867,  8.493316 )     2.23138449
  WF centre and spread   52  ( -9.692270, -1.226825,  8.509356 )     2.26448379
  WF centre and spread   53  ( -9.718031, -1.194304,  8.417334 )     2.30851055
  WF centre and spread   54  ( -9.726473, -1.188483,  8.423250 )     2.33007697
  WF centre and spread   55  ( -9.697785, -1.241365,  8.388117 )     2.39407593
  WF centre and spread   56  ( -9.702590, -1.239549,  8.391886 )     2.42833608
  Sum of centres and spreads (**********,  0.000000,387.472526 )   104.36958584
 
      4    -0.397E+00     1.4969788196      104.3695950293       0.99  <-- CONV
        O_D=      0.0111192 O_OD=      3.6787142 O_TOT=    104.3695950 <-- SPRD
 Delta: O_D=  0.1895499E-02 O_OD= -0.3985381E+00 O_TOT= -0.3966426E+00 <-- DLTA
 ------------------------------------------------------------------------------
 Cycle:      5
  WF centre and spread    1  ( -3.939046,  0.000000,  6.919152 )     0.76509560
  WF centre and spread    2  ( -3.939038,  0.000001,  6.919152 )     1.22301193
  WF centre and spread    3  ( -3.943745, -0.000001,  6.919152 )     0.88192873
  WF centre and spread    4  ( -3.947289, -0.000004,  6.919153 )     1.17936585
  WF centre and spread    5  ( -3.934414, -0.000002,  6.919152 )     0.88156015
  WF centre and spread    6  ( -3.930897, -0.000005,  6.919152 )     1.17860306
  WF centre and spread    7  ( -3.933860, -0.000000,  6.919152 )     0.85100505
  WF centre and spread    8  ( -3.930390, -0.000001,  6.919153 )     1.28556132
  WF centre and spread    9  ( -3.944194,  0.000000,  6.919152 )     0.85087407
  WF centre and spread   10  ( -3.947658, -0.000001,  6.919152 )     1.28547918
  WF centre and spread   11  ( -7.878120, -0.000000,  6.919152 )     0.76509541
  WF centre and spread   12  ( -7.878128, -0.000001,  6.919152 )     1.22301173
  WF centre and spread   13  ( -7.873421,  0.000001,  6.919152 )     0.88192854
  WF centre and spread   14  ( -7.869877,  0.000004,  6.919152 )     1.17936565
  WF centre and spread   15  ( -7.882752,  0.000002,  6.919152 )     0.88155995
  WF centre and spread   16  ( -7.886269,  0.000005,  6.919152 )     1.17860286
  WF centre and spread   17  ( -7.883306,  0.000000,  6.919152 )     0.85100485
  WF centre and spread   18  ( -7.886776,  0.000001,  6.919152 )     1.28556112
  WF centre and spread   19  ( -7.872972, -0.000000,  6.919152 )     0.85087387
  WF centre and spread   20  ( -7.869509,  0.000001,  6.919152 )     1.28547898
  WF centre and spread   21  ( -2.126043,  1.227486,  5.344508 )     2.22262094
  WF centre and spread   22  ( -2.124372,  1.226522,  5.328876 )     2.25519611
  WF centre and spread   23  ( -2.098717,  1.194249,  5.420181 )     2.29865229
  WF centre and spread   24  ( -2.090407,  1.188598,  5.414598 )     2.31960728
  WF centre and spread   25  ( -2.118863,  1.240885,  5.449319 )     2.38189983
  WF centre and spread   26  ( -2.114250,  1.239083,  5.445882 )     2.41430752
  WF centre and spread   27  ( -8.034634,  2.183841,  8.493796 )     2.22262476
  WF centre and spread   28  ( -8.032965,  2.184805,  8.509428 )     2.25517259
  WF centre and spread   29  ( -8.007299,  2.217068,  8.418122 )     2.29871413
  WF centre and spread   30  ( -7.998987,  2.222718,  8.423706 )     2.31966717
  WF centre and spread   31  ( -8.027448,  2.170444,  8.388987 )     2.38181466
  WF centre and spread   32  ( -8.022836,  2.172247,  8.392423 )     2.41422163
  WF centre and spread   33  ( -5.908593,  0.956374,  5.344516 )     2.22258394
  WF centre and spread   34  ( -5.908593,  0.958303,  5.328886 )     2.25519289
  WF centre and spread   35  ( -5.908584,  0.935575,  5.463969 )     2.42190091
  WF centre and spread   36  ( -5.908585,  0.937910,  5.461643 )     2.45977572
  WF centre and spread   37  ( -5.908583,  1.017023,  5.405707 )     2.25537304
  WF centre and spread   38  ( -5.908583,  1.029566,  5.399098 )     2.27025471
  WF centre and spread   39  ( -5.908573, -0.956374,  8.493789 )     2.22258394
  WF centre and spread   40  ( -5.908573, -0.958303,  8.509419 )     2.25519289
  WF centre and spread   41  ( -5.908582, -0.935575,  8.374335 )     2.42190091
  WF centre and spread   42  ( -5.908581, -0.937910,  8.376661 )     2.45977572
  WF centre and spread   43  ( -5.908583, -1.017023,  8.432597 )     2.25537304
  WF centre and spread   44  ( -5.908583, -1.029566,  8.439206 )     2.27025471
  WF centre and spread   45  ( -3.782532, -2.183841,  5.344508 )     2.22262498
  WF centre and spread   46  ( -3.784201, -2.184805,  5.328877 )     2.25517280
  WF centre and spread   47  ( -3.809867, -2.217068,  5.420182 )     2.29871434
  WF centre and spread   48  ( -3.818179, -2.222718,  5.414599 )     2.31966738
  WF centre and spread   49  ( -3.789718, -2.170444,  5.449318 )     2.38181488
  WF centre and spread   50  ( -3.794330, -2.172247,  5.445881 )     2.41422184
  WF centre and spread   51  ( -9.691124, -1.227486,  8.493797 )     2.22262057
  WF centre and spread   52  ( -9.692794, -1.226522,  8.509428 )     2.25519573
  WF centre and spread   53  ( -9.718449, -1.194249,  8.418124 )     2.29865191
  WF centre and spread   54  ( -9.726759, -1.188598,  8.423706 )     2.31960690
  WF centre and spread   55  ( -9.698303, -1.240885,  8.388986 )     2.38189945
  WF centre and spread   56  ( -9.702916, -1.239083,  8.392422 )     2.41430714
  Sum of centres and spreads (**********,  0.000000,387.472526 )   104.10412709
 
      5    -0.265E+00     1.3287432761      104.1041362766       1.24  <-- CONV
        O_D=      0.0102918 O_OD=      3.4140828 O_TOT=    104.1041363 <-- SPRD
 Delta: O_D= -0.8273373E-03 O_OD= -0.2646314E+00 O_TOT= -0.2654588E+00 <-- DLTA
 ------------------------------------------------------------------------------
 Cycle:      6
  WF centre and spread    1  ( -3.939043,  0.000001,  6.919152 )     0.76539776
  WF centre and spread    2  ( -3.939035,  0.000002,  6.919152 )     1.22778252
  WF centre and spread    3  ( -3.943836, -0.000001,  6.919152 )     0.88832229
  WF centre and spread    4  ( -3.947485, -0.000004,  6.919153 )     1.19063772
  WF centre and spread    5  ( -3.934319, -0.000002,  6.919152 )     0.88768338
  WF centre and spread    6  ( -3.930697, -0.000005,  6.919152 )     1.18953931
  WF centre and spread    7  ( -3.933907, -0.000000,  6.919152 )     0.85562587
  WF centre and spread    8  ( -3.930247, -0.000001,  6.919152 )     1.29470916
  WF centre and spread    9  ( -3.944142, -0.000000,  6.919152 )     0.85549259
  WF centre and spread   10  ( -3.947793, -0.000002,  6.919152 )     1.29461295
  WF centre and spread   11  ( -7.878123, -0.000001,  6.919152 )     0.76539756
  WF centre and spread   12  ( -7.878131, -0.000002,  6.919152 )     1.22778233
  WF centre and spread   13  ( -7.873330,  0.000001,  6.919152 )     0.88832209
  WF centre and spread   14  ( -7.869681,  0.000004,  6.919152 )     1.19063753
  WF centre and spread   15  ( -7.882847,  0.000002,  6.919152 )     0.88768318
  WF centre and spread   16  ( -7.886469,  0.000005,  6.919152 )     1.18953911
  WF centre and spread   17  ( -7.883259,  0.000000,  6.919152 )     0.85562567
  WF centre and spread   18  ( -7.886919,  0.000001,  6.919152 )     1.29470896
  WF centre and spread   19  ( -7.873024,  0.000000,  6.919152 )     0.85549239
  WF centre and spread   20  ( -7.869373,  0.000002,  6.919152 )     1.29461275
  WF centre and spread   21  ( -2.125600,  1.227227,  5.344332 )     2.21559508
  WF centre and spread   22  ( -2.124017,  1.226313,  5.328953 )     2.24675802
  WF centre and spread   23  ( -2.098526,  1.194266,  5.419670 )     2.29072167
  WF centre and spread   24  ( -2.090346,  1.188763,  5.414269 )     2.31016496
  WF centre and spread   25  ( -2.118534,  1.240566,  5.448738 )     2.37190047
  WF centre and spread   26  ( -2.114101,  1.238785,  5.445514 )     2.40214284
  WF centre and spread   27  ( -8.034190,  2.184101,  8.493972 )     2.21559525
  WF centre and spread   28  ( -8.032608,  2.185015,  8.509351 )     2.24673281
  WF centre and spread   29  ( -8.007110,  2.217051,  8.418633 )     2.29077210
  WF centre and spread   30  ( -7.998927,  2.222554,  8.424035 )     2.31021455
  WF centre and spread   31  ( -8.027119,  2.170765,  8.389568 )     2.37183283
  WF centre and spread   32  ( -8.022688,  2.172546,  8.392792 )     2.40207348
  WF centre and spread   33  ( -5.908593,  0.956885,  5.344338 )     2.21554367
  WF centre and spread   34  ( -5.908593,  0.958716,  5.328960 )     2.24672268
  WF centre and spread   35  ( -5.908583,  0.936168,  5.463334 )     2.41164166
  WF centre and spread   36  ( -5.908584,  0.938344,  5.461234 )     2.44696980
  WF centre and spread   37  ( -5.908585,  1.017025,  5.405241 )     2.24770274
  WF centre and spread   38  ( -5.908584,  1.029364,  5.398800 )     2.26143591
  WF centre and spread   39  ( -5.908573, -0.956885,  8.493966 )     2.21554367
  WF centre and spread   40  ( -5.908573, -0.958716,  8.509344 )     2.24672268
  WF centre and spread   41  ( -5.908583, -0.936168,  8.374971 )     2.41164166
  WF centre and spread   42  ( -5.908582, -0.938344,  8.377071 )     2.44696980
  WF centre and spread   43  ( -5.908581, -1.017025,  8.433063 )     2.24770274
  WF centre and spread   44  ( -5.908582, -1.029364,  8.439504 )     2.26143591
  WF centre and spread   45  ( -3.782976, -2.184101,  5.344333 )     2.21559547
  WF centre and spread   46  ( -3.784558, -2.185015,  5.328954 )     2.24673303
  WF centre and spread   47  ( -3.810056, -2.217051,  5.419672 )     2.29077231
  WF centre and spread   48  ( -3.818239, -2.222554,  5.414269 )     2.31021476
  WF centre and spread   49  ( -3.790047, -2.170765,  5.448737 )     2.37183304
  WF centre and spread   50  ( -3.794478, -2.172546,  5.445512 )     2.40207370
  WF centre and spread   51  ( -9.691566, -1.227227,  8.493972 )     2.21559471
  WF centre and spread   52  ( -9.693149, -1.226313,  8.509352 )     2.24675764
  WF centre and spread   53  ( -9.718640, -1.194266,  8.418634 )     2.29072129
  WF centre and spread   54  ( -9.726820, -1.188763,  8.424036 )     2.31016458
  WF centre and spread   55  ( -9.698632, -1.240566,  8.389566 )     2.37190009
  WF centre and spread   56  ( -9.703065, -1.238785,  8.392791 )     2.40214246
  Sum of centres and spreads (**********,  0.000000,387.472526 )   103.90864516
 
      6    -0.195E+00     1.1002024103      103.9086543442       1.48  <-- CONV
        O_D=      0.0065692 O_OD=      3.2223236 O_TOT=    103.9086543 <-- SPRD
 Delta: O_D= -0.3722691E-02 O_OD= -0.1917592E+00 O_TOT= -0.1954819E+00 <-- DLTA
 ------------------------------------------------------------------------------
 Cycle:      7
  WF centre and spread    1  ( -3.939043,  0.000000,  6.919152 )     0.76510756
  WF centre and spread    2  ( -3.939034,  0.000002,  6.919152 )     1.22747929
  WF centre and spread    3  ( -3.943841, -0.000001,  6.919152 )     0.88789283
  WF centre and spread    4  ( -3.947501, -0.000004,  6.919153 )     1.19034389
  WF centre and spread    5  ( -3.934313, -0.000002,  6.919152 )     0.88727775
  WF centre and spread    6  ( -3.930679, -0.000005,  6.919152 )     1.18928680
  WF centre and spread    7  ( -3.933919, -0.000000,  6.919152 )     0.85520310
  WF centre and spread    8  ( -3.930249, -0.000001,  6.919153 )     1.29432669
  WF centre and spread    9  ( -3.944132, -0.000000,  6.919152 )     0.85506581
  WF centre and spread   10  ( -3.947794, -0.000001,  6.919152 )     1.29421434
  WF centre and spread   11  ( -7.878123, -0.000000,  6.919152 )     0.76510737
  WF centre and spread   12  ( -7.878132, -0.000002,  6.919152 )     1.22747909
  WF centre and spread   13  ( -7.873326,  0.000001,  6.919152 )     0.88789263
  WF centre and spread   14  ( -7.869665,  0.000004,  6.919152 )     1.19034369
  WF centre and spread   15  ( -7.882853,  0.000002,  6.919152 )     0.88727755
  WF centre and spread   16  ( -7.886487,  0.000005,  6.919152 )     1.18928661
  WF centre and spread   17  ( -7.883247,  0.000000,  6.919152 )     0.85520291
  WF centre and spread   18  ( -7.886917,  0.000001,  6.919152 )     1.29432649
  WF centre and spread   19  ( -7.873034,  0.000000,  6.919152 )     0.85506561
  WF centre and spread   20  ( -7.869372,  0.000001,  6.919152 )     1.29421415
  WF centre and spread   21  ( -2.125585,  1.227218,  5.344322 )     2.21383853
  WF centre and spread   22  ( -2.124014,  1.226311,  5.328942 )     2.24454646
  WF centre and spread   23  ( -2.098536,  1.194270,  5.419623 )     2.28917210
  WF centre and spread   24  ( -2.090371,  1.188789,  5.414219 )     2.30804686
  WF centre and spread   25  ( -2.118531,  1.240559,  5.448675 )     2.36993017
  WF centre and spread   26  ( -2.114130,  1.238782,  5.445451 )     2.39954668
  WF centre and spread   27  ( -8.034176,  2.184109,  8.493982 )     2.21384180
  WF centre and spread   28  ( -8.032607,  2.185016,  8.509362 )     2.24452231
  WF centre and spread   29  ( -8.007119,  2.217048,  8.418680 )     2.28922987
  WF centre and spread   30  ( -7.998952,  2.222528,  8.424086 )     2.30810430
  WF centre and spread   31  ( -8.027116,  2.170770,  8.389630 )     2.36985604
  WF centre and spread   32  ( -8.022716,  2.172548,  8.392854 )     2.39947130
  WF centre and spread   33  ( -5.908593,  0.956902,  5.344329 )     2.21378986
  WF centre and spread   34  ( -5.908593,  0.958719,  5.328950 )     2.24450779
  WF centre and spread   35  ( -5.908584,  0.936184,  5.463262 )     2.40940240
  WF centre and spread   36  ( -5.908585,  0.938326,  5.461164 )     2.44409261
  WF centre and spread   37  ( -5.908584,  1.017006,  5.405201 )     2.24642577
  WF centre and spread   38  ( -5.908583,  1.029322,  5.398757 )     2.25963006
  WF centre and spread   39  ( -5.908573, -0.956902,  8.493976 )     2.21378986
  WF centre and spread   40  ( -5.908573, -0.958719,  8.509355 )     2.24450779
  WF centre and spread   41  ( -5.908582, -0.936184,  8.375042 )     2.40940240
  WF centre and spread   42  ( -5.908581, -0.938326,  8.377140 )     2.44409261
  WF centre and spread   43  ( -5.908582, -1.017006,  8.433103 )     2.24642577
  WF centre and spread   44  ( -5.908583, -1.029322,  8.439548 )     2.25963006
  WF centre and spread   45  ( -3.782990, -2.184109,  5.344323 )     2.21384201
  WF centre and spread   46  ( -3.784559, -2.185016,  5.328942 )     2.24452252
  WF centre and spread   47  ( -3.810048, -2.217048,  5.419624 )     2.28923008
  WF centre and spread   48  ( -3.818214, -2.222528,  5.414219 )     2.30810451
  WF centre and spread   49  ( -3.790050, -2.170770,  5.448674 )     2.36985625
  WF centre and spread   50  ( -3.794450, -2.172548,  5.445450 )     2.39947151
  WF centre and spread   51  ( -9.691581, -1.227218,  8.493982 )     2.21383815
  WF centre and spread   52  ( -9.693152, -1.226311,  8.509363 )     2.24454608
  WF centre and spread   53  ( -9.718630, -1.194270,  8.418682 )     2.28917172
  WF centre and spread   54  ( -9.726795, -1.188789,  8.424086 )     2.30804648
  WF centre and spread   55  ( -9.698635, -1.240559,  8.389629 )     2.36992979
  WF centre and spread   56  ( -9.703036, -1.238782,  8.392853 )     2.39954630
  Sum of centres and spreads (**********,  0.000000,387.472526 )   103.82830300
 
      7    -0.803E-01     0.9192874212      103.8283121844       1.72  <-- CONV
        O_D=      0.0060954 O_OD=      3.1424552 O_TOT=    103.8283122 <-- SPRD
 Delta: O_D= -0.4737799E-03 O_OD= -0.7986838E-01 O_TOT= -0.8034216E-01 <-- DLTA
 ------------------------------------------------------------------------------
 Cycle:      8
  WF centre and spread    1  ( -3.939042,  0.000000,  6.919152 )     0.76533958
  WF centre and spread    2  ( -3.939033,  0.000002,  6.919152 )     1.22845853
  WF centre and spread    3  ( -3.943852, -0.000001,  6.919152 )     0.88785980
  WF centre and spread    4  ( -3.947543, -0.000004,  6.919153 )     1.19155207
  WF centre and spread    5  ( -3.934297, -0.000002,  6.919152 )     0.88729365
  WF centre and spread    6  ( -3.930632, -0.000005,  6.919152 )     1.19055315
  WF centre and spread    7  ( -3.933946, -0.000000,  6.919152 )     0.85538688
  WF centre and spread    8  ( -3.930242, -0.000001,  6.919153 )     1.29558747
  WF centre and spread    9  ( -3.944108,  0.000000,  6.919152 )     0.85526502
  WF centre and spread   10  ( -3.947803, -0.000001,  6.919152 )     1.29548439
  WF centre and spread   11  ( -7.878124, -0.000000,  6.919152 )     0.76533939
  WF centre and spread   12  ( -7.878133, -0.000002,  6.919152 )     1.22845833
  WF centre and spread   13  ( -7.873314,  0.000001,  6.919152 )     0.88785960
  WF centre and spread   14  ( -7.869623,  0.000004,  6.919152 )     1.19155188
  WF centre and spread   15  ( -7.882869,  0.000002,  6.919152 )     0.88729345
  WF centre and spread   16  ( -7.886534,  0.000005,  6.919152 )     1.19055295
  WF centre and spread   17  ( -7.883220,  0.000000,  6.919152 )     0.85538668
  WF centre and spread   18  ( -7.886924,  0.000001,  6.919152 )     1.29558727
  WF centre and spread   19  ( -7.873058, -0.000000,  6.919152 )     0.85526482
  WF centre and spread   20  ( -7.869363,  0.000001,  6.919152 )     1.29548419
  WF centre and spread   21  ( -2.125539,  1.227189,  5.344323 )     2.21208331
  WF centre and spread   22  ( -2.123996,  1.226299,  5.328947 )     2.24192159
  WF centre and spread   23  ( -2.098544,  1.194280,  5.419527 )     2.28767884
  WF centre and spread   24  ( -2.090404,  1.188845,  5.414124 )     2.30575590
  WF centre and spread   25  ( -2.118515,  1.240541,  5.448544 )     2.36761204
  WF centre and spread   26  ( -2.114185,  1.238769,  5.445331 )     2.39645110
  WF centre and spread   27  ( -8.034131,  2.184137,  8.493982 )     2.21208322
  WF centre and spread   28  ( -8.032589,  2.185029,  8.509356 )     2.24189049
  WF centre and spread   29  ( -8.007127,  2.217038,  8.418777 )     2.28773514
  WF centre and spread   30  ( -7.998984,  2.222471,  8.424180 )     2.30581248
  WF centre and spread   31  ( -8.027099,  2.170789,  8.389761 )     2.36753198
  WF centre and spread   32  ( -8.022771,  2.172562,  8.392974 )     2.39636904
  WF centre and spread   33  ( -5.908592,  0.956955,  5.344330 )     2.21201952
  WF centre and spread   34  ( -5.908592,  0.958740,  5.328957 )     2.24185869
  WF centre and spread   35  ( -5.908584,  0.936226,  5.463111 )     2.40646132
  WF centre and spread   36  ( -5.908585,  0.938292,  5.461027 )     2.44039579
  WF centre and spread   37  ( -5.908584,  1.016969,  5.405123 )     2.24550249
  WF centre and spread   38  ( -5.908584,  1.029248,  5.398678 )     2.25790793
  WF centre and spread   39  ( -5.908574, -0.956955,  8.493975 )     2.21201952
  WF centre and spread   40  ( -5.908574, -0.958740,  8.509348 )     2.24185869
  WF centre and spread   41  ( -5.908582, -0.936226,  8.375193 )     2.40646132
  WF centre and spread   42  ( -5.908581, -0.938292,  8.377277 )     2.44039579
  WF centre and spread   43  ( -5.908582, -1.016969,  8.433182 )     2.24550249
  WF centre and spread   44  ( -5.908583, -1.029248,  8.439627 )     2.25790793
  WF centre and spread   45  ( -3.783035, -2.184137,  5.344323 )     2.21208343
  WF centre and spread   46  ( -3.784577, -2.185029,  5.328948 )     2.24189070
  WF centre and spread   47  ( -3.810039, -2.217038,  5.419528 )     2.28773535
  WF centre and spread   48  ( -3.818182, -2.222471,  5.414125 )     2.30581269
  WF centre and spread   49  ( -3.790067, -2.170789,  5.448543 )     2.36753220
  WF centre and spread   50  ( -3.794395, -2.172562,  5.445330 )     2.39636925
  WF centre and spread   51  ( -9.691627, -1.227189,  8.493982 )     2.21208294
  WF centre and spread   52  ( -9.693170, -1.226299,  8.509357 )     2.24192121
  WF centre and spread   53  ( -9.718622, -1.194280,  8.418778 )     2.28767845
  WF centre and spread   54  ( -9.726762, -1.188845,  8.424180 )     2.30575552
  WF centre and spread   55  ( -9.698651, -1.240541,  8.389760 )     2.36761166
  WF centre and spread   56  ( -9.702981, -1.238769,  8.392974 )     2.39645072
  Sum of centres and spreads (**********,  0.000000,387.472526 )   103.75969986
 
      8    -0.686E-01     0.6333707344      103.7597090461       1.97  <-- CONV
        O_D=      0.0057011 O_OD=      3.0742464 O_TOT=    103.7597090 <-- SPRD
 Delta: O_D= -0.3943234E-03 O_OD= -0.6820881E-01 O_TOT= -0.6860314E-01 <-- DLTA
 ------------------------------------------------------------------------------
 Cycle:      9
  WF centre and spread    1  ( -3.939041,  0.000000,  6.919152 )     0.76579696
  WF centre and spread    2  ( -3.939031,  0.000002,  6.919152 )     1.23027721
  WF centre and spread    3  ( -3.943870, -0.000001,  6.919152 )     0.88887000
  WF centre and spread    4  ( -3.947596, -0.000004,  6.919153 )     1.19429643
  WF centre and spread    5  ( -3.934274, -0.000002,  6.919152 )     0.88834596
  WF centre and spread    6  ( -3.930574, -0.000005,  6.919152 )     1.19333010
  WF centre and spread    7  ( -3.933979, -0.000000,  6.919152 )     0.85657907
  WF centre and spread    8  ( -3.930223, -0.000001,  6.919153 )     1.29879564
  WF centre and spread    9  ( -3.944076, -0.000000,  6.919152 )     0.85648531
  WF centre and spread   10  ( -3.947822, -0.000001,  6.919152 )     1.29872763
  WF centre and spread   11  ( -7.878125, -0.000000,  6.919152 )     0.76579677
  WF centre and spread   12  ( -7.878135, -0.000002,  6.919152 )     1.23027701
  WF centre and spread   13  ( -7.873296,  0.000001,  6.919152 )     0.88886980
  WF centre and spread   14  ( -7.869570,  0.000004,  6.919152 )     1.19429624
  WF centre and spread   15  ( -7.882892,  0.000002,  6.919152 )     0.88834576
  WF centre and spread   16  ( -7.886592,  0.000005,  6.919152 )     1.19332990
  WF centre and spread   17  ( -7.883187,  0.000000,  6.919152 )     0.85657887
  WF centre and spread   18  ( -7.886943,  0.000001,  6.919152 )     1.29879545
  WF centre and spread   19  ( -7.873090,  0.000000,  6.919152 )     0.85648511
  WF centre and spread   20  ( -7.869345,  0.000001,  6.919152 )     1.29872743
  WF centre and spread   21  ( -2.125463,  1.227143,  5.344351 )     2.20978548
  WF centre and spread   22  ( -2.123950,  1.226269,  5.328996 )     2.23874550
  WF centre and spread   23  ( -2.098534,  1.194293,  5.419426 )     2.28609225
  WF centre and spread   24  ( -2.090405,  1.188901,  5.414032 )     2.30339559
  WF centre and spread   25  ( -2.118482,  1.240503,  5.448406 )     2.36509474
  WF centre and spread   26  ( -2.114228,  1.238737,  5.445212 )     2.39317717
  WF centre and spread   27  ( -8.034055,  2.184184,  8.493953 )     2.20978828
  WF centre and spread   28  ( -8.032543,  2.185059,  8.509307 )     2.23872060
  WF centre and spread   29  ( -8.007116,  2.217024,  8.418878 )     2.28614417
  WF centre and spread   30  ( -7.998985,  2.222415,  8.424272 )     2.30344583
  WF centre and spread   31  ( -8.027067,  2.170826,  8.389899 )     2.36501459
  WF centre and spread   32  ( -8.022814,  2.172594,  8.393093 )     2.39309632
  WF centre and spread   33  ( -5.908592,  0.957041,  5.344359 )     2.20971457
  WF centre and spread   34  ( -5.908592,  0.958792,  5.329007 )     2.23866935
  WF centre and spread   35  ( -5.908584,  0.936296,  5.462948 )     2.40319708
  WF centre and spread   36  ( -5.908584,  0.938275,  5.460888 )     2.43636993
  WF centre and spread   37  ( -5.908584,  1.016938,  5.405044 )     2.24462833
  WF centre and spread   38  ( -5.908584,  1.029201,  5.398604 )     2.25624324
  WF centre and spread   39  ( -5.908574, -0.957041,  8.493945 )     2.20971457
  WF centre and spread   40  ( -5.908574, -0.958792,  8.509297 )     2.23866935
  WF centre and spread   41  ( -5.908582, -0.936296,  8.375357 )     2.40319708
  WF centre and spread   42  ( -5.908582, -0.938275,  8.377417 )     2.43636993
  WF centre and spread   43  ( -5.908582, -1.016938,  8.433260 )     2.24462833
  WF centre and spread   44  ( -5.908583, -1.029201,  8.439700 )     2.25624324
  WF centre and spread   45  ( -3.783111, -2.184184,  5.344352 )     2.20978850
  WF centre and spread   46  ( -3.784623, -2.185059,  5.328997 )     2.23872082
  WF centre and spread   47  ( -3.810050, -2.217024,  5.419426 )     2.28614438
  WF centre and spread   48  ( -3.818181, -2.222415,  5.414032 )     2.30344603
  WF centre and spread   49  ( -3.790099, -2.170826,  5.448405 )     2.36501480
  WF centre and spread   50  ( -3.794352, -2.172594,  5.445212 )     2.39309653
  WF centre and spread   51  ( -9.691703, -1.227143,  8.493953 )     2.20978511
  WF centre and spread   52  ( -9.693216, -1.226269,  8.509308 )     2.23874512
  WF centre and spread   53  ( -9.718632, -1.194293,  8.418879 )     2.28609187
  WF centre and spread   54  ( -9.726761, -1.188901,  8.424272 )     2.30339521
  WF centre and spread   55  ( -9.698684, -1.240503,  8.389898 )     2.36509436
  WF centre and spread   56  ( -9.702938, -1.238737,  8.393092 )     2.39317679
  Sum of centres and spreads (**********,  0.000000,387.472526 )   103.70565171
 
      9    -0.540E-01     0.5836701219      103.7056609024       2.21  <-- CONV
        O_D=      0.0053694 O_OD=      3.0205299 O_TOT=    103.7056609 <-- SPRD
 Delta: O_D= -0.3316782E-03 O_OD= -0.5371647E-01 O_TOT= -0.5404814E-01 <-- DLTA
 ------------------------------------------------------------------------------
 Cycle:     10
  WF centre and spread    1  ( -3.939041,  0.000000,  6.919152 )     0.76647916
  WF centre and spread    2  ( -3.939030,  0.000002,  6.919152 )     1.23228193
  WF centre and spread    3  ( -3.943890, -0.000001,  6.919152 )     0.89071784
  WF centre and spread    4  ( -3.947645, -0.000004,  6.919153 )     1.19762131
  WF centre and spread    5  ( -3.934251, -0.000002,  6.919152 )     0.89019734
  WF centre and spread    6  ( -3.930521, -0.000005,  6.919152 )     1.19665984
  WF centre and spread    7  ( -3.934010, -0.000000,  6.919152 )     0.85838198
  WF centre and spread    8  ( -3.930204, -0.000001,  6.919153 )     1.30249634
  WF centre and spread    9  ( -3.944047, -0.000000,  6.919152 )     0.85831545
  WF centre and spread   10  ( -3.947839, -0.000001,  6.919152 )     1.30246568
  WF centre and spread   11  ( -7.878125, -0.000000,  6.919152 )     0.76647897
  WF centre and spread   12  ( -7.878136, -0.000002,  6.919152 )     1.23228174
  WF centre and spread   13  ( -7.873276,  0.000001,  6.919152 )     0.89071765
  WF centre and spread   14  ( -7.869521,  0.000004,  6.919152 )     1.19762111
  WF centre and spread   15  ( -7.882915,  0.000002,  6.919152 )     0.89019714
  WF centre and spread   16  ( -7.886645,  0.000005,  6.919152 )     1.19665964
  WF centre and spread   17  ( -7.883156,  0.000000,  6.919152 )     0.85838178
  WF centre and spread   18  ( -7.886962,  0.000001,  6.919152 )     1.30249615
  WF centre and spread   19  ( -7.873119,  0.000000,  6.919152 )     0.85831526
  WF centre and spread   20  ( -7.869327,  0.000001,  6.919152 )     1.30246548
  WF centre and spread   21  ( -2.125382,  1.227094,  5.344403 )     2.20782778
  WF centre and spread   22  ( -2.123891,  1.226233,  5.329077 )     2.23616584
  WF centre and spread   23  ( -2.098510,  1.194308,  5.419344 )     2.28453819
  WF centre and spread   24  ( -2.090385,  1.188943,  5.413960 )     2.30117409
  WF centre and spread   25  ( -2.118446,  1.240449,  5.448299 )     2.36279645
  WF centre and spread   26  ( -2.114246,  1.238689,  5.445122 )     2.39016618
  WF centre and spread   27  ( -8.033974,  2.184233,  8.493901 )     2.20783289
  WF centre and spread   28  ( -8.032484,  2.185094,  8.509227 )     2.23614185
  WF centre and spread   29  ( -8.007093,  2.217010,  8.418959 )     2.28459491
  WF centre and spread   30  ( -7.998965,  2.222374,  8.424344 )     2.30123048
  WF centre and spread   31  ( -8.027031,  2.170880,  8.390007 )     2.36271733
  WF centre and spread   32  ( -8.022832,  2.172641,  8.393183 )     2.39008646
  WF centre and spread   33  ( -5.908592,  0.957135,  5.344412 )     2.20775074
  WF centre and spread   34  ( -5.908593,  0.958859,  5.329089 )     2.23607822
  WF centre and spread   35  ( -5.908583,  0.936381,  5.462820 )     2.40031063
  WF centre and spread   36  ( -5.908584,  0.938295,  5.460781 )     2.43273507
  WF centre and spread   37  ( -5.908585,  1.016927,  5.404982 )     2.24370874
  WF centre and spread   38  ( -5.908584,  1.029186,  5.398549 )     2.25467110
  WF centre and spread   39  ( -5.908574, -0.957135,  8.493893 )     2.20775074
  WF centre and spread   40  ( -5.908573, -0.958859,  8.509215 )     2.23607822
  WF centre and spread   41  ( -5.908583, -0.936381,  8.375484 )     2.40031063
  WF centre and spread   42  ( -5.908582, -0.938295,  8.377524 )     2.43273508
  WF centre and spread   43  ( -5.908582, -1.016927,  8.433323 )     2.24370874
  WF centre and spread   44  ( -5.908582, -1.029186,  8.439755 )     2.25467110
  WF centre and spread   45  ( -3.783192, -2.184233,  5.344404 )     2.20783310
  WF centre and spread   46  ( -3.784682, -2.185094,  5.329078 )     2.23614206
  WF centre and spread   47  ( -3.810073, -2.217010,  5.419345 )     2.28459512
  WF centre and spread   48  ( -3.818201, -2.222374,  5.413960 )     2.30123069
  WF centre and spread   49  ( -3.790135, -2.170880,  5.448298 )     2.36271754
  WF centre and spread   50  ( -3.794334, -2.172641,  5.445121 )     2.39008667
  WF centre and spread   51  ( -9.691784, -1.227094,  8.493901 )     2.20782740
  WF centre and spread   52  ( -9.693275, -1.226233,  8.509227 )     2.23616546
  WF centre and spread   53  ( -9.718656, -1.194308,  8.418960 )     2.28453781
  WF centre and spread   54  ( -9.726781, -1.188943,  8.424345 )     2.30117371
  WF centre and spread   55  ( -9.698720, -1.240449,  8.390006 )     2.36279607
  WF centre and spread   56  ( -9.702921, -1.238689,  8.393182 )     2.39016580
  Sum of centres and spreads (**********,  0.000000,387.472526 )   103.67228465
 
     10    -0.334E-01     0.4731547469      103.6722938400       2.46  <-- CONV
        O_D=      0.0052353 O_OD=      2.9872970 O_TOT=    103.6722938 <-- SPRD
 Delta: O_D= -0.1341046E-03 O_OD= -0.3323296E-01 O_TOT= -0.3336706E-01 <-- DLTA
 ------------------------------------------------------------------------------
 Cycle:     11
  WF centre and spread    1  ( -3.939040,  0.000001,  6.919152 )     0.76730411
  WF centre and spread    2  ( -3.939029,  0.000002,  6.919152 )     1.23433424
  WF centre and spread    3  ( -3.943914, -0.000001,  6.919152 )     0.89333173
  WF centre and spread    4  ( -3.947696, -0.000004,  6.919153 )     1.20161955
  WF centre and spread    5  ( -3.934224, -0.000002,  6.919152 )     0.89277584
  WF centre and spread    6  ( -3.930467, -0.000005,  6.919152 )     1.20062384
  WF centre and spread    7  ( -3.934040, -0.000000,  6.919152 )     0.86057694
  WF centre and spread    8  ( -3.930185, -0.000001,  6.919152 )     1.30626743
  WF centre and spread    9  ( -3.944018, -0.000000,  6.919152 )     0.86052690
  WF centre and spread   10  ( -3.947859, -0.000001,  6.919152 )     1.30625420
  WF centre and spread   11  ( -7.878126, -0.000001,  6.919152 )     0.76730391
  WF centre and spread   12  ( -7.878137, -0.000002,  6.919152 )     1.23433405
  WF centre and spread   13  ( -7.873252,  0.000001,  6.919152 )     0.89333153
  WF centre and spread   14  ( -7.869470,  0.000004,  6.919152 )     1.20161935
  WF centre and spread   15  ( -7.882942,  0.000002,  6.919152 )     0.89277564
  WF centre and spread   16  ( -7.886699,  0.000005,  6.919152 )     1.20062364
  WF centre and spread   17  ( -7.883126,  0.000000,  6.919152 )     0.86057674
  WF centre and spread   18  ( -7.886981,  0.000001,  6.919152 )     1.30626723
  WF centre and spread   19  ( -7.873148,  0.000000,  6.919152 )     0.86052671
  WF centre and spread   20  ( -7.869307,  0.000001,  6.919152 )     1.30625401
  WF centre and spread   21  ( -2.125294,  1.227043,  5.344474 )     2.20607479
  WF centre and spread   22  ( -2.123821,  1.226191,  5.329185 )     2.23390536
  WF centre and spread   23  ( -2.098482,  1.194330,  5.419264 )     2.28287371
  WF centre and spread   24  ( -2.090359,  1.188981,  5.413893 )     2.29889502
  WF centre and spread   25  ( -2.118409,  1.240384,  5.448201 )     2.36044716
  WF centre and spread   26  ( -2.114246,  1.238629,  5.445044 )     2.38710109
  WF centre and spread   27  ( -8.033885,  2.184284,  8.493829 )     2.20607882
  WF centre and spread   28  ( -8.032413,  2.185136,  8.509119 )     2.23387981
  WF centre and spread   29  ( -8.007064,  2.216987,  8.419040 )     2.28292958
  WF centre and spread   30  ( -7.998939,  2.222335,  8.424412 )     2.29895154
  WF centre and spread   31  ( -8.026994,  2.170946,  8.390104 )     2.36036959
  WF centre and spread   32  ( -8.022832,  2.172701,  8.393261 )     2.38702153
  WF centre and spread   33  ( -5.908592,  0.957237,  5.344484 )     2.20598563
  WF centre and spread   34  ( -5.908593,  0.958941,  5.329198 )     2.23379977
  WF centre and spread   35  ( -5.908584,  0.936481,  5.462708 )     2.39743900
  WF centre and spread   36  ( -5.908584,  0.938347,  5.460690 )     2.42908120
  WF centre and spread   37  ( -5.908585,  1.016915,  5.404917 )     2.24264683
  WF centre and spread   38  ( -5.908584,  1.029173,  5.398497 )     2.25304069
  WF centre and spread   39  ( -5.908574, -0.957237,  8.493821 )     2.20598563
  WF centre and spread   40  ( -5.908573, -0.958941,  8.509106 )     2.23379977
  WF centre and spread   41  ( -5.908583, -0.936481,  8.375597 )     2.39743900
  WF centre and spread   42  ( -5.908582, -0.938347,  8.377615 )     2.42908120
  WF centre and spread   43  ( -5.908582, -1.016915,  8.433387 )     2.24264683
  WF centre and spread   44  ( -5.908582, -1.029173,  8.439807 )     2.25304069
  WF centre and spread   45  ( -3.783281, -2.184284,  5.344475 )     2.20607903
  WF centre and spread   46  ( -3.784753, -2.185136,  5.329186 )     2.23388002
  WF centre and spread   47  ( -3.810102, -2.216987,  5.419265 )     2.28292979
  WF centre and spread   48  ( -3.818227, -2.222335,  5.413893 )     2.29895175
  WF centre and spread   49  ( -3.790172, -2.170946,  5.448200 )     2.36036980
  WF centre and spread   50  ( -3.794334, -2.172701,  5.445043 )     2.38702174
  WF centre and spread   51  ( -9.691872, -1.227043,  8.493830 )     2.20607441
  WF centre and spread   52  ( -9.693345, -1.226191,  8.509120 )     2.23390498
  WF centre and spread   53  ( -9.718685, -1.194330,  8.419040 )     2.28287333
  WF centre and spread   54  ( -9.726807, -1.188981,  8.424412 )     2.29889464
  WF centre and spread   55  ( -9.698757, -1.240384,  8.390103 )     2.36044678
  WF centre and spread   56  ( -9.702920, -1.238629,  8.393260 )     2.38710071
  Sum of centres and spreads (**********,  0.000000,387.472526 )   103.64826878
 
     11    -0.240E-01     0.3758436339      103.6482779685       2.70  <-- CONV
        O_D=      0.0052336 O_OD=      2.9632827 O_TOT=    103.6482780 <-- SPRD
 Delta: O_D= -0.1641563E-05 O_OD= -0.2401423E-01 O_TOT= -0.2401587E-01 <-- DLTA
 ------------------------------------------------------------------------------
 Cycle:     12
  WF centre and spread    1  ( -3.939039,  0.000001,  6.919152 )     0.76795286
  WF centre and spread    2  ( -3.939028,  0.000002,  6.919152 )     1.23565737
  WF centre and spread    3  ( -3.943934, -0.000001,  6.919152 )     0.89551847
  WF centre and spread    4  ( -3.947732, -0.000004,  6.919153 )     1.20461563
  WF centre and spread    5  ( -3.934203, -0.000002,  6.919152 )     0.89492922
  WF centre and spread    6  ( -3.930430, -0.000005,  6.919152 )     1.20358170
  WF centre and spread    7  ( -3.934060, -0.000000,  6.919152 )     0.86222859
  WF centre and spread    8  ( -3.930168, -0.000001,  6.919152 )     1.30868421
  WF centre and spread    9  ( -3.944000, -0.000000,  6.919152 )     0.86218568
  WF centre and spread   10  ( -3.947877, -0.000001,  6.919152 )     1.30867433
  WF centre and spread   11  ( -7.878127, -0.000001,  6.919152 )     0.76795267
  WF centre and spread   12  ( -7.878138, -0.000002,  6.919152 )     1.23565717
  WF centre and spread   13  ( -7.873232,  0.000001,  6.919152 )     0.89551827
  WF centre and spread   14  ( -7.869434,  0.000004,  6.919152 )     1.20461544
  WF centre and spread   15  ( -7.882963,  0.000002,  6.919152 )     0.89492903
  WF centre and spread   16  ( -7.886736,  0.000005,  6.919152 )     1.20358150
  WF centre and spread   17  ( -7.883106,  0.000000,  6.919152 )     0.86222839
  WF centre and spread   18  ( -7.886998,  0.000001,  6.919152 )     1.30868402
  WF centre and spread   19  ( -7.873166,  0.000000,  6.919152 )     0.86218548
  WF centre and spread   20  ( -7.869290,  0.000001,  6.919152 )     1.30867413
  WF centre and spread   21  ( -2.125233,  1.227008,  5.344535 )     2.20485441
  WF centre and spread   22  ( -2.123769,  1.226161,  5.329274 )     2.23240000
  WF centre and spread   23  ( -2.098465,  1.194351,  5.419210 )     2.28169898
  WF centre and spread   24  ( -2.090345,  1.189008,  5.413855 )     2.29745294
  WF centre and spread   25  ( -2.118383,  1.240338,  5.448141 )     2.35882174
  WF centre and spread   26  ( -2.114239,  1.238589,  5.445005 )     2.38511061
  WF centre and spread   27  ( -8.033825,  2.184319,  8.493769 )     2.20485909
  WF centre and spread   28  ( -8.032361,  2.185166,  8.509030 )     2.23237454
  WF centre and spread   29  ( -8.007048,  2.216966,  8.419094 )     2.28175456
  WF centre and spread   30  ( -7.998925,  2.222309,  8.424450 )     2.29750916
  WF centre and spread   31  ( -8.026969,  2.170992,  8.390164 )     2.35874649
  WF centre and spread   32  ( -8.022825,  2.172742,  8.393300 )     2.38503362
  WF centre and spread   33  ( -5.908593,  0.957307,  5.344545 )     2.20476291
  WF centre and spread   34  ( -5.908593,  0.959001,  5.329288 )     2.23228974
  WF centre and spread   35  ( -5.908583,  0.936552,  5.462641 )     2.39547658
  WF centre and spread   36  ( -5.908584,  0.938394,  5.460646 )     2.42668990
  WF centre and spread   37  ( -5.908585,  1.016896,  5.404871 )     2.24183365
  WF centre and spread   38  ( -5.908584,  1.029154,  5.398467 )     2.25200492
  WF centre and spread   39  ( -5.908574, -0.957307,  8.493759 )     2.20476291
  WF centre and spread   40  ( -5.908573, -0.959001,  8.509016 )     2.23228974
  WF centre and spread   41  ( -5.908583, -0.936552,  8.375663 )     2.39547658
  WF centre and spread   42  ( -5.908582, -0.938394,  8.377658 )     2.42668990
  WF centre and spread   43  ( -5.908581, -1.016896,  8.433434 )     2.24183365
  WF centre and spread   44  ( -5.908582, -1.029154,  8.439838 )     2.25200492
  WF centre and spread   45  ( -3.783341, -2.184319,  5.344536 )     2.20485930
  WF centre and spread   46  ( -3.784805, -2.185166,  5.329275 )     2.23237475
  WF centre and spread   47  ( -3.810118, -2.216966,  5.419211 )     2.28175477
  WF centre and spread   48  ( -3.818241, -2.222309,  5.413855 )     2.29750937
[...]
  WF centre and spread   15  ( -7.883071,  0.000002,  6.919153 )     0.90839578
  WF centre and spread   16  ( -7.886909,  0.000005,  6.919152 )     1.21938589
  WF centre and spread   17  ( -7.883018,  0.000000,  6.919152 )     0.87083303
  WF centre and spread   18  ( -7.887133,  0.000001,  6.919152 )     1.31984490
  WF centre and spread   19  ( -7.873238,  0.000000,  6.919152 )     0.87080367
  WF centre and spread   20  ( -7.869143,  0.000001,  6.919152 )     1.31982229
  WF centre and spread   21  ( -2.124976,  1.226948,  5.344900 )     2.19892982
  WF centre and spread   22  ( -2.123598,  1.226191,  5.329754 )     2.22516799
  WF centre and spread   23  ( -2.097561,  1.194127,  5.418315 )     2.27415780
  WF centre and spread   24  ( -2.088996,  1.188552,  5.412810 )     2.28882365
  WF centre and spread   25  ( -2.119265,  1.240463,  5.448701 )     2.35233853
  WF centre and spread   26  ( -2.115536,  1.238879,  5.445986 )     2.37799154
  WF centre and spread   27  ( -8.033567,  2.184379,  8.493404 )     2.19893574
  WF centre and spread   28  ( -8.032191,  2.185137,  8.508550 )     2.22514620
  WF centre and spread   29  ( -8.006144,  2.217191,  8.419988 )     2.27420733
  WF centre and spread   30  ( -7.997576,  2.222765,  8.425494 )     2.28887268
  WF centre and spread   31  ( -8.027850,  2.170866,  8.389604 )     2.35226464
  WF centre and spread   32  ( -8.024122,  2.172452,  8.392320 )     2.37791887
  WF centre and spread   33  ( -5.908592,  0.957488,  5.344924 )     2.19866512
  WF centre and spread   34  ( -5.908593,  0.959021,  5.329784 )     2.22474266
  WF centre and spread   35  ( -5.908583,  0.936827,  5.462538 )     2.38603317
  WF centre and spread   36  ( -5.908584,  0.938614,  5.460744 )     2.41537341
  WF centre and spread   37  ( -5.908585,  1.016780,  5.404632 )     2.23739716
  WF centre and spread   38  ( -5.908584,  1.029190,  5.398307 )     2.24786776
  WF centre and spread   39  ( -5.908574, -0.957488,  8.493381 )     2.19866512
  WF centre and spread   40  ( -5.908573, -0.959021,  8.508520 )     2.22474266
  WF centre and spread   41  ( -5.908583, -0.936827,  8.375767 )     2.38603317
  WF centre and spread   42  ( -5.908582, -0.938614,  8.377561 )     2.41537341
  WF centre and spread   43  ( -5.908581, -1.016780,  8.433672 )     2.23739716
  WF centre and spread   44  ( -5.908582, -1.029190,  8.439997 )     2.24786777
  WF centre and spread   45  ( -3.783599, -2.184379,  5.344901 )     2.19893596
  WF centre and spread   46  ( -3.784975, -2.185137,  5.329755 )     2.22514641
  WF centre and spread   47  ( -3.811022, -2.217191,  5.418316 )     2.27420754
  WF centre and spread   48  ( -3.819590, -2.222765,  5.412810 )     2.28887289
  WF centre and spread   49  ( -3.789316, -2.170866,  5.448700 )     2.35226485
  WF centre and spread   50  ( -3.793044, -2.172452,  5.445985 )     2.37791908
  WF centre and spread   51  ( -9.692190, -1.226948,  8.493404 )     2.19892944
  WF centre and spread   52  ( -9.693568, -1.226191,  8.508551 )     2.22516761
  WF centre and spread   53  ( -9.719605, -1.194127,  8.419989 )     2.27415742
  WF centre and spread   54  ( -9.728170, -1.188552,  8.425495 )     2.28882327
  WF centre and spread   55  ( -9.697901, -1.240463,  8.389603 )     2.35233815
  WF centre and spread   56  ( -9.701630, -1.238879,  8.392319 )     2.37799116
  Sum of centres and spreads (**********,  0.000000,387.472526 )   103.59349771
 
    298    -0.409E-05     0.0045235053      103.5935068947      73.45  <-- CONV
        O_D=      0.0048332 O_OD=      2.9089121 O_TOT=    103.5935069 <-- SPRD
 Delta: O_D=  0.3870173E-07 O_OD= -0.4126568E-05 O_TOT= -0.4087866E-05 <-- DLTA
 ------------------------------------------------------------------------------
 Cycle:    299
  WF centre and spread    1  ( -3.939039,  0.000001,  6.919152 )     0.77235665
  WF centre and spread    2  ( -3.939033,  0.000002,  6.919152 )     1.24124324
  WF centre and spread    3  ( -3.944033, -0.000001,  6.919152 )     0.90891146
  WF centre and spread    4  ( -3.947905, -0.000004,  6.919153 )     1.22032239
  WF centre and spread    5  ( -3.934095, -0.000002,  6.919152 )     0.90839563
  WF centre and spread    6  ( -3.930257, -0.000005,  6.919152 )     1.21938603
  WF centre and spread    7  ( -3.934148, -0.000000,  6.919152 )     0.87083171
  WF centre and spread    8  ( -3.930033, -0.000001,  6.919153 )     1.31985069
  WF centre and spread    9  ( -3.943928, -0.000000,  6.919152 )     0.87080259
  WF centre and spread   10  ( -3.948023, -0.000001,  6.919152 )     1.31982858
  WF centre and spread   11  ( -7.878127, -0.000001,  6.919152 )     0.77235645
  WF centre and spread   12  ( -7.878133, -0.000002,  6.919152 )     1.24124305
  WF centre and spread   13  ( -7.873133,  0.000001,  6.919152 )     0.90891126
  WF centre and spread   14  ( -7.869261,  0.000004,  6.919152 )     1.22032219
  WF centre and spread   15  ( -7.883071,  0.000002,  6.919153 )     0.90839543
  WF centre and spread   16  ( -7.886909,  0.000005,  6.919152 )     1.21938583
  WF centre and spread   17  ( -7.883018,  0.000000,  6.919152 )     0.87083152
  WF centre and spread   18  ( -7.887133,  0.000001,  6.919152 )     1.31985049
  WF centre and spread   19  ( -7.873238,  0.000000,  6.919152 )     0.87080240
  WF centre and spread   20  ( -7.869143,  0.000001,  6.919152 )     1.31982838
  WF centre and spread   21  ( -2.124976,  1.226948,  5.344900 )     2.19892996
  WF centre and spread   22  ( -2.123599,  1.226191,  5.329754 )     2.22516435
  WF centre and spread   23  ( -2.097555,  1.194125,  5.418311 )     2.27414745
  WF centre and spread   24  ( -2.088987,  1.188549,  5.412804 )     2.28880849
  WF centre and spread   25  ( -2.119271,  1.240465,  5.448706 )     2.35234893
  WF centre and spread   26  ( -2.115544,  1.238881,  5.445992 )     2.37800398
  WF centre and spread   27  ( -8.033567,  2.184379,  8.493404 )     2.19893588
  WF centre and spread   28  ( -8.032191,  2.185136,  8.508550 )     2.22514255
  WF centre and spread   29  ( -8.006138,  2.217193,  8.419992 )     2.27419711
  WF centre and spread   30  ( -7.997567,  2.222768,  8.425500 )     2.28885763
  WF centre and spread   31  ( -8.027856,  2.170865,  8.389600 )     2.35227496
  WF centre and spread   32  ( -8.024130,  2.172449,  8.392314 )     2.37793122
  WF centre and spread   33  ( -5.908592,  0.957487,  5.344924 )     2.19866435
  WF centre and spread   34  ( -5.908593,  0.959020,  5.329784 )     2.22473734
  WF centre and spread   35  ( -5.908583,  0.936827,  5.462538 )     2.38603356
  WF centre and spread   36  ( -5.908584,  0.938614,  5.460744 )     2.41537071
  WF centre and spread   37  ( -5.908585,  1.016780,  5.404632 )     2.23739922
  WF centre and spread   38  ( -5.908584,  1.029191,  5.398307 )     2.24787134
  WF centre and spread   39  ( -5.908574, -0.957487,  8.493381 )     2.19866435
  WF centre and spread   40  ( -5.908573, -0.959020,  8.508520 )     2.22473734
  WF centre and spread   41  ( -5.908583, -0.936827,  8.375766 )     2.38603356
  WF centre and spread   42  ( -5.908582, -0.938614,  8.377561 )     2.41537071
  WF centre and spread   43  ( -5.908581, -1.016780,  8.433673 )     2.23739922
  WF centre and spread   44  ( -5.908582, -1.029191,  8.439998 )     2.24787134
  WF centre and spread   45  ( -3.783599, -2.184379,  5.344901 )     2.19893609
  WF centre and spread   46  ( -3.784975, -2.185136,  5.329755 )     2.22514276
  WF centre and spread   47  ( -3.811028, -2.217193,  5.418312 )     2.27419732
  WF centre and spread   48  ( -3.819599, -2.222768,  5.412804 )     2.28885784
  WF centre and spread   49  ( -3.789310, -2.170865,  5.448705 )     2.35227518
  WF centre and spread   50  ( -3.793036, -2.172449,  5.445991 )     2.37793143
  WF centre and spread   51  ( -9.692191, -1.226948,  8.493404 )     2.19892959
  WF centre and spread   52  ( -9.693568, -1.226191,  8.508550 )     2.22516397
  WF centre and spread   53  ( -9.719611, -1.194125,  8.419993 )     2.27414707
  WF centre and spread   54  ( -9.728179, -1.188549,  8.425501 )     2.28880811
  WF centre and spread   55  ( -9.697895, -1.240465,  8.389599 )     2.35234855
  WF centre and spread   56  ( -9.701622, -1.238881,  8.392313 )     2.37800360
  Sum of centres and spreads (**********,  0.000000,387.472526 )   103.59349305
 
    299    -0.465E-05     0.0048139394      103.5935022423      73.69  <-- CONV
        O_D=      0.0048331 O_OD=      2.9089075 O_TOT=    103.5935022 <-- SPRD
 Delta: O_D= -0.1050594E-06 O_OD= -0.4547398E-05 O_TOT= -0.4652458E-05 <-- DLTA
 ------------------------------------------------------------------------------
 Cycle:    300
  WF centre and spread    1  ( -3.939039,  0.000001,  6.919152 )     0.77235686
  WF centre and spread    2  ( -3.939033,  0.000002,  6.919152 )     1.24124438
  WF centre and spread    3  ( -3.944033, -0.000001,  6.919152 )     0.90891400
  WF centre and spread    4  ( -3.947905, -0.000004,  6.919153 )     1.22032284
  WF centre and spread    5  ( -3.934095, -0.000002,  6.919152 )     0.90839813
  WF centre and spread    6  ( -3.930257, -0.000005,  6.919152 )     1.21938649
  WF centre and spread    7  ( -3.934148, -0.000000,  6.919152 )     0.87082939
  WF centre and spread    8  ( -3.930033, -0.000001,  6.919153 )     1.31985159
  WF centre and spread    9  ( -3.943928, -0.000000,  6.919152 )     0.87080038
  WF centre and spread   10  ( -3.948023, -0.000001,  6.919152 )     1.31982974
  WF centre and spread   11  ( -7.878127, -0.000001,  6.919152 )     0.77235666
  WF centre and spread   12  ( -7.878133, -0.000002,  6.919152 )     1.24124419
  WF centre and spread   13  ( -7.873133,  0.000001,  6.919152 )     0.90891380
  WF centre and spread   14  ( -7.869261,  0.000004,  6.919152 )     1.22032265
  WF centre and spread   15  ( -7.883071,  0.000002,  6.919153 )     0.90839793
  WF centre and spread   16  ( -7.886909,  0.000005,  6.919152 )     1.21938629
  WF centre and spread   17  ( -7.883018,  0.000000,  6.919152 )     0.87082919
  WF centre and spread   18  ( -7.887133,  0.000001,  6.919152 )     1.31985139
  WF centre and spread   19  ( -7.873238,  0.000000,  6.919152 )     0.87080018
  WF centre and spread   20  ( -7.869143,  0.000001,  6.919152 )     1.31982955
  WF centre and spread   21  ( -2.124975,  1.226948,  5.344900 )     2.19893034
  WF centre and spread   22  ( -2.123599,  1.226192,  5.329754 )     2.22516246
  WF centre and spread   23  ( -2.097549,  1.194123,  5.418306 )     2.27413486
  WF centre and spread   24  ( -2.088978,  1.188546,  5.412797 )     2.28879187
  WF centre and spread   25  ( -2.119278,  1.240466,  5.448711 )     2.35236037
  WF centre and spread   26  ( -2.115554,  1.238884,  5.445998 )     2.37801995
  WF centre and spread   27  ( -8.033567,  2.184378,  8.493404 )     2.19893629
  WF centre and spread   28  ( -8.032191,  2.185135,  8.508550 )     2.22514069
  WF centre and spread   29  ( -8.006131,  2.217195,  8.419997 )     2.27418456
  WF centre and spread   30  ( -7.997558,  2.222771,  8.425507 )     2.28884105
  WF centre and spread   31  ( -8.027863,  2.170863,  8.389595 )     2.35228639
  WF centre and spread   32  ( -8.024139,  2.172446,  8.392307 )     2.37794716
  WF centre and spread   33  ( -5.908592,  0.957487,  5.344924 )     2.19866377
  WF centre and spread   34  ( -5.908593,  0.959018,  5.329784 )     2.22473373
  WF centre and spread   35  ( -5.908583,  0.936827,  5.462538 )     2.38603405
  WF centre and spread   36  ( -5.908584,  0.938614,  5.460744 )     2.41537028
  WF centre and spread   37  ( -5.908585,  1.016781,  5.404631 )     2.23739977
  WF centre and spread   38  ( -5.908584,  1.029192,  5.398306 )     2.24787445
  WF centre and spread   39  ( -5.908574, -0.957487,  8.493381 )     2.19866378
  WF centre and spread   40  ( -5.908573, -0.959018,  8.508520 )     2.22473373
  WF centre and spread   41  ( -5.908583, -0.936827,  8.375766 )     2.38603405
  WF centre and spread   42  ( -5.908582, -0.938614,  8.377560 )     2.41537028
  WF centre and spread   43  ( -5.908581, -1.016781,  8.433673 )     2.23739976
  WF centre and spread   44  ( -5.908582, -1.029192,  8.439998 )     2.24787445
  WF centre and spread   45  ( -3.783599, -2.184378,  5.344901 )     2.19893650
  WF centre and spread   46  ( -3.784975, -2.185135,  5.329755 )     2.22514090
  WF centre and spread   47  ( -3.811035, -2.217195,  5.418307 )     2.27418477
  WF centre and spread   48  ( -3.819608, -2.222771,  5.412798 )     2.28884125
  WF centre and spread   49  ( -3.789303, -2.170863,  5.448710 )     2.35228660
  WF centre and spread   50  ( -3.793027, -2.172446,  5.445997 )     2.37794737
  WF centre and spread   51  ( -9.692191, -1.226948,  8.493404 )     2.19892996
  WF centre and spread   52  ( -9.693567, -1.226192,  8.508550 )     2.22516209
  WF centre and spread   53  ( -9.719617, -1.194123,  8.419998 )     2.27413448
  WF centre and spread   54  ( -9.728188, -1.188546,  8.425507 )     2.28879149
  WF centre and spread   55  ( -9.697888, -1.240466,  8.389594 )     2.35235999
  WF centre and spread   56  ( -9.701612, -1.238884,  8.392306 )     2.37801957
  Sum of centres and spreads (**********,  0.000000,387.472526 )   103.59348869
 
    300    -0.437E-05     0.0050165779      103.5934978754      73.93  <-- CONV
        O_D=      0.0048329 O_OD=      2.9089034 O_TOT=    103.5934979 <-- SPRD
 Delta: O_D= -0.2282947E-06 O_OD= -0.4138583E-05 O_TOT= -0.4366877E-05 <-- DLTA
 ------------------------------------------------------------------------------

 Writing checkpoint file wannier90.chk... done

 Final State
  WF centre and spread    1  ( -3.939039,  0.000001,  6.919152 )     0.77235686
  WF centre and spread    2  ( -3.939033,  0.000002,  6.919152 )     1.24124438
  WF centre and spread    3  ( -3.944033, -0.000001,  6.919152 )     0.90891400
  WF centre and spread    4  ( -3.947905, -0.000004,  6.919153 )     1.22032284
  WF centre and spread    5  ( -3.934095, -0.000002,  6.919152 )     0.90839813
  WF centre and spread    6  ( -3.930257, -0.000005,  6.919152 )     1.21938649
  WF centre and spread    7  ( -3.934148, -0.000000,  6.919152 )     0.87082939
  WF centre and spread    8  ( -3.930033, -0.000001,  6.919153 )     1.31985159
  WF centre and spread    9  ( -3.943928, -0.000000,  6.919152 )     0.87080038
  WF centre and spread   10  ( -3.948023, -0.000001,  6.919152 )     1.31982974
  WF centre and spread   11  ( -7.878127, -0.000001,  6.919152 )     0.77235666
  WF centre and spread   12  ( -7.878133, -0.000002,  6.919152 )     1.24124419
  WF centre and spread   13  ( -7.873133,  0.000001,  6.919152 )     0.90891380
  WF centre and spread   14  ( -7.869261,  0.000004,  6.919152 )     1.22032265
  WF centre and spread   15  ( -7.883071,  0.000002,  6.919153 )     0.90839793
  WF centre and spread   16  ( -7.886909,  0.000005,  6.919152 )     1.21938629
  WF centre and spread   17  ( -7.883018,  0.000000,  6.919152 )     0.87082919
  WF centre and spread   18  ( -7.887133,  0.000001,  6.919152 )     1.31985139
  WF centre and spread   19  ( -7.873238,  0.000000,  6.919152 )     0.87080018
  WF centre and spread   20  ( -7.869143,  0.000001,  6.919152 )     1.31982955
  WF centre and spread   21  ( -2.124975,  1.226948,  5.344900 )     2.19893034
  WF centre and spread   22  ( -2.123599,  1.226192,  5.329754 )     2.22516246
  WF centre and spread   23  ( -2.097549,  1.194123,  5.418306 )     2.27413486
  WF centre and spread   24  ( -2.088978,  1.188546,  5.412797 )     2.28879187
  WF centre and spread   25  ( -2.119278,  1.240466,  5.448711 )     2.35236037
  WF centre and spread   26  ( -2.115554,  1.238884,  5.445998 )     2.37801995
  WF centre and spread   27  ( -8.033567,  2.184378,  8.493404 )     2.19893629
  WF centre and spread   28  ( -8.032191,  2.185135,  8.508550 )     2.22514069
  WF centre and spread   29  ( -8.006131,  2.217195,  8.419997 )     2.27418456
  WF centre and spread   30  ( -7.997558,  2.222771,  8.425507 )     2.28884105
  WF centre and spread   31  ( -8.027863,  2.170863,  8.389595 )     2.35228639
  WF centre and spread   32  ( -8.024139,  2.172446,  8.392307 )     2.37794716
  WF centre and spread   33  ( -5.908592,  0.957487,  5.344924 )     2.19866377
  WF centre and spread   34  ( -5.908593,  0.959018,  5.329784 )     2.22473373
  WF centre and spread   35  ( -5.908583,  0.936827,  5.462538 )     2.38603405
  WF centre and spread   36  ( -5.908584,  0.938614,  5.460744 )     2.41537028
  WF centre and spread   37  ( -5.908585,  1.016781,  5.404631 )     2.23739977
  WF centre and spread   38  ( -5.908584,  1.029192,  5.398306 )     2.24787445
  WF centre and spread   39  ( -5.908574, -0.957487,  8.493381 )     2.19866378
  WF centre and spread   40  ( -5.908573, -0.959018,  8.508520 )     2.22473373
  WF centre and spread   41  ( -5.908583, -0.936827,  8.375766 )     2.38603405
  WF centre and spread   42  ( -5.908582, -0.938614,  8.377560 )     2.41537028
  WF centre and spread   43  ( -5.908581, -1.016781,  8.433673 )     2.23739976
  WF centre and spread   44  ( -5.908582, -1.029192,  8.439998 )     2.24787445
  WF centre and spread   45  ( -3.783599, -2.184378,  5.344901 )     2.19893650
  WF centre and spread   46  ( -3.784975, -2.185135,  5.329755 )     2.22514090
  WF centre and spread   47  ( -3.811035, -2.217195,  5.418307 )     2.27418477
  WF centre and spread   48  ( -3.819608, -2.222771,  5.412798 )     2.28884125
  WF centre and spread   49  ( -3.789303, -2.170863,  5.448710 )     2.35228660
  WF centre and spread   50  ( -3.793027, -2.172446,  5.445997 )     2.37794737
  WF centre and spread   51  ( -9.692191, -1.226948,  8.493404 )     2.19892996
  WF centre and spread   52  ( -9.693567, -1.226192,  8.508550 )     2.22516209
  WF centre and spread   53  ( -9.719617, -1.194123,  8.419998 )     2.27413448
  WF centre and spread   54  ( -9.728188, -1.188546,  8.425507 )     2.28879149
  WF centre and spread   55  ( -9.697888, -1.240466,  8.389594 )     2.35235999
  WF centre and spread   56  ( -9.701612, -1.238884,  8.392306 )     2.37801957
  Sum of centres and spreads (**********,  0.000000,387.472526 )   103.59348869
 
         Spreads (Ang^2)       Omega I      =   100.679761605
        ================       Omega D      =     0.004832871
                               Omega OD     =     2.908903400
    Final Spread (Ang^2)       Omega Total  =   103.593497875
 ------------------------------------------------------------------------------

 Wannier centres written to file wannier90_centres.xyz
 Time for wannierise           74.019 (sec)

 Writing checkpoint file wannier90.chk... done

 *---------------------------------------------------------------------------*
 |                               PLOTTING                                    |
 *---------------------------------------------------------------------------*
 
 
 Calculating interpolated band-structure
 
 Time to calculate interpolated band structure      33.810 (sec)
 
 Time for plotting             37.279 (sec)
 Total Execution Time         113.539 (sec)

 *===========================================================================*
 |                             TIMING INFORMATION                            |
 *===========================================================================*
 |    Tag                                                Ncalls      Time (s)|
 |---------------------------------------------------------------------------|
 |kmesh: get                                        :         1         0.046|
 |overlap: allocate                                 :         1         0.019|
 |overlap: read                                     :         1         2.133|
 |wann: main                                        :         1        74.019|
 |plot: main                                        :         1        37.279|
 *---------------------------------------------------------------------------*
 
 All done: wannier90 exiting
